 vasp.5.2.12 26May11 complex 
 executed on             LinuxIFC date 2012.05.25  10:19:13
 running on    4 nodes
 distr:  one band on    1 nodes,    4 groups


--------------------------------------------------------------------------------------------------------


 INCAR:
 POTCAR:    PAW_PBE B 06Sep2000                   
 POTCAR:    PAW_PBE B 06Sep2000                   
   VRHFIN =B: s2p1                                                              
   LEXCH  = PE                                                                  
   EATOM  =    71.1703 eV,    5.2309 Ry                                         
                                                                                
   TITEL  = PAW_PBE B 06Sep2000                                                 
   LULTRA =        F    use ultrasoft PP ?                                      
   IUNSCR =        1    unscreen: 0-lin 1-nonlin 2-no                           
   RPACOR =    1.200    partial core radius                                     
   POMASS =   10.811; ZVAL   =    3.000    mass and valenz                      
   RCORE  =    1.700    outmost cutoff radius                                   
   RWIGS  =    1.710; RWIGS  =    0.905    wigner-seitz radius (au A)           
   ENMAX  =  318.614; ENMIN  =  238.960 eV                                      
   ICORE  =        2    local potential                                         
   LCOR   =        T    correct aug charges                                     
   LPAW   =        T    paw PP                                                  
   EAUG   =  535.514                                                            
   DEXC   =    0.000                                                            
   RMAX   =    1.732    core radius for proj-oper                               
   RAUG   =    1.300    factor for augmentation sphere                          
   RDEP   =    1.757    radius for radial grids                                 
   RDEPT  =    1.436    core radius for aug-charge                              
                                                                                
   Atomic configuration                                                         
    4 entries                                                                   
     n  l   j            E        occ.                                          
     1  0  0.50      -180.5896   2.0000                                         
     2  0  0.50        -9.4431   2.0000                                         
     2  1  0.50        -3.6068   1.0000                                         
     3  2  1.50        -4.0817   0.0000                                         
   Description                                                                  
     l       E           TYP  RCUT    TYP  RCUT                                 
     0     -9.4430752     23  1.500                                             
     0      0.8675899     23  1.500                                             
     1     -3.6067955     23  1.700                                             
     1      6.1086146     23  1.700                                             
     2     -4.0817478      7  1.700                                             
  local pseudopotential read in
  partial core-charges read in
  partial kinetic energy density read in
  atomic valenz-charges read in
  non local Contribution for L=           0  read in
    real space projection operators read in
  non local Contribution for L=           0  read in
    real space projection operators read in
  non local Contribution for L=           1  read in
    real space projection operators read in
  non local Contribution for L=           1  read in
    real space projection operators read in
    PAW grid and wavefunctions read in
 
   number of l-projection  operators is LMAX  =           4
   number of lm-projection operators is LMMAX =           8
 
 Optimization of the real space projectors (new method)

 maximal supplied QI-value         = 22.11
 optimisation between [QCUT,QGAM] = [  9.07, 18.13] = [ 23.01, 92.04] Ry 
 Optimized for a Real-space Cutoff    1.46 Angstroem

   l    n(q)    QCUT    max X(q) W(low)/X(q) W(high)/X(q)  e(spline) 
   0      8     9.065    53.033    0.38E-03    0.70E-03    0.20E-06
   0      8     9.065    34.740    0.38E-03    0.69E-03    0.20E-06
   1      7     9.065    30.949    0.34E-03    0.21E-03    0.23E-06
   1      7     9.065    19.518    0.31E-03    0.17E-03    0.22E-06
  PAW_PBE B 06Sep2000                   :
 energy of atom  1       EATOM=  -71.1703
 kinetic energy error for atom=    0.0071 (will be added to EATOM!!)
 
 
 POSCAR: XYZ.pcell: B105                         
  positions in direct lattice
  No initial velocities read in
 exchange correlation table for  LEXCH =        8
   RHO(1)=    0.500       N(1)  =     2000
   RHO(2)=  100.500       N(2)  =     4000
 


--------------------------------------------------------------------------------------------------------


 ion  position               nearest neighbor table
   1  0.500  0.500  0.500-  17 1.70  20 1.70  18 1.70  19 1.70  16 1.70  21 1.70
   2  0.387  0.387  0.387-  11 1.73  10 1.73  12 1.73   5 1.73   6 1.73   4 1.73  17 1.84  16 1.84
                            18 1.84
   3  0.613  0.613  0.613-  14 1.73  13 1.73  15 1.73   8 1.73   9 1.73   7 1.73  20 1.84  19 1.84
                            21 1.84
   4  0.387  0.216  0.387-   2 1.73  10 1.76  24 1.79  23 1.79 104 1.83  96 1.83   5 1.87   6 1.87

   5  0.387  0.387  0.216-   2 1.73  11 1.76  22 1.79  24 1.79  94 1.83 103 1.83   6 1.87   4 1.87

   6  0.216  0.387  0.387-   2 1.73  12 1.76  22 1.79  23 1.79  95 1.83 105 1.83   5 1.87   4 1.87

   7  0.784  0.613  0.613-   3 1.73  13 1.76  27 1.79  26 1.79 101 1.83  99 1.83   8 1.87   9 1.87

   8  0.613  0.613  0.784-   3 1.73  14 1.76  25 1.79  27 1.79  97 1.83 100 1.83   9 1.87   7 1.87

   9  0.613  0.784  0.613-   3 1.73  15 1.76  25 1.79  26 1.79  98 1.83 102 1.83   8 1.87   7 1.87

  10  0.489  0.219  0.489-   2 1.73   4 1.76  92 1.78  84 1.78 104 1.88  96 1.88  18 1.89  17 1.89

  11  0.489  0.489  0.219-   2 1.73   5 1.76  82 1.78  91 1.78  94 1.88 103 1.88  16 1.89  18 1.89

  12  0.219  0.489  0.489-   2 1.73   6 1.76  83 1.78  93 1.78  95 1.88 105 1.88  16 1.89  17 1.89

  13  0.781  0.511  0.511-   3 1.73   7 1.76  89 1.78  87 1.78 101 1.88  99 1.88  21 1.89  20 1.89

  14  0.511  0.511  0.781-   3 1.73   8 1.76  85 1.78  88 1.78  97 1.88 100 1.88  19 1.89  21 1.89

  15  0.511  0.781  0.511-   3 1.73   9 1.76  86 1.78  90 1.78  98 1.88 102 1.88  19 1.89  20 1.89

  16  0.387  0.567  0.387-   1 1.70  82 1.77  93 1.77   2 1.84  12 1.89  11 1.89  17 1.97  18 1.97

  17  0.387  0.387  0.567-   1 1.70  83 1.77  92 1.77   2 1.84  10 1.89  12 1.89  16 1.97  18 1.97

  18  0.567  0.387  0.387-   1 1.70  91 1.77  84 1.77   2 1.84  10 1.89  11 1.89  17 1.97  16 1.97

  19  0.433  0.613  0.613-   1 1.70  85 1.77  90 1.77   3 1.84  15 1.89  14 1.89  20 1.97  21 1.97

  20  0.613  0.613  0.433-   1 1.70  86 1.77  89 1.77   3 1.84  13 1.89  15 1.89  19 1.97  21 1.97

  21  0.613  0.433  0.613-   1 1.70  88 1.77  87 1.77   3 1.84  13 1.89  14 1.89  20 1.97  19 1.97

  22  0.202  0.505  0.202-  34 1.77   6 1.79   5 1.79  94 1.82 105 1.82  28 1.83
  23  0.202  0.202  0.505-  35 1.77   6 1.79   4 1.79  95 1.82 104 1.82  29 1.83
  24  0.505  0.202  0.202-  36 1.77   4 1.79   5 1.79 103 1.82  96 1.82  30 1.83
  25  0.495  0.798  0.798-  37 1.77   9 1.79   8 1.79  97 1.82 102 1.82  31 1.83
  26  0.798  0.798  0.495-  38 1.77   9 1.79   7 1.79  98 1.82 101 1.82  32 1.83
  27  0.798  0.495  0.798-  39 1.77   7 1.79   8 1.79 100 1.82  99 1.82  33 1.83
  28  0.197  0.689  0.197-  46 1.57 105 1.74  94 1.74  93 1.82  82 1.82  22 1.83
  29  0.197  0.197  0.689-  47 1.57  95 1.74 104 1.74  83 1.82  92 1.82  23 1.83
  30  0.689  0.197  0.197-  48 1.57  96 1.74 103 1.74  84 1.82  91 1.82  24 1.83
  31  0.311  0.803  0.803-  49 1.57 102 1.74  97 1.74  90 1.82  85 1.82  25 1.83
  32  0.803  0.803  0.311-  50 1.57  98 1.74 101 1.74  86 1.82  89 1.82  26 1.83
  33  0.803  0.311  0.803-  51 1.57  99 1.74 100 1.74  87 1.82  88 1.82  27 1.83
  34  0.102  0.495  0.102-  22 1.77  40 1.81  69 1.85  58 1.85  70 1.86  81 1.86
  35  0.102  0.102  0.495-  23 1.77  41 1.81  59 1.85  68 1.85  71 1.86  80 1.86
  36  0.495  0.102  0.102-  24 1.77  42 1.81  60 1.85  67 1.85  79 1.86  72 1.86
  37  0.505  0.898  0.898-  25 1.77  43 1.81  66 1.85  61 1.85  73 1.86  78 1.86
  38  0.898  0.898  0.505-  26 1.77  44 1.81  62 1.85  65 1.85  74 1.86  77 1.86
  39  0.898  0.505  0.898-  27 1.77  45 1.81  63 1.85  64 1.85  76 1.86  75 1.86
  40  0.993  0.666  0.993-  57 1.73  63 1.80  64 1.80  81 1.80  70 1.80  34 1.81
  41  0.993  0.993  0.666-  56 1.73  62 1.80  65 1.80  71 1.80  80 1.80  35 1.81
  42  0.666  0.993  0.993-  55 1.73  66 1.80  61 1.80  72 1.80  79 1.80  36 1.81
  43  0.334  0.007  0.007-  54 1.73  60 1.80  67 1.80  78 1.80  73 1.80  37 1.81
  44  0.007  0.007  0.334-  53 1.73  59 1.80  68 1.80  74 1.80  77 1.80  38 1.81
  45  0.007  0.334  0.007-  52 1.73  69 1.80  58 1.80  75 1.80  76 1.80  39 1.81
  46  0.103  0.838  0.103-  28 1.57  54 1.78  53 1.78  49 1.82  50 1.82  57 1.82
  47  0.103  0.103  0.838-  29 1.57  52 1.78  54 1.78  49 1.82  51 1.82  56 1.82
  48  0.838  0.103  0.103-  30 1.57  52 1.78  53 1.78  51 1.82  50 1.82  55 1.82
  49  0.162  0.897  0.897-  31 1.57  57 1.78  56 1.78  46 1.82  47 1.82  54 1.82
  50  0.897  0.897  0.162-  32 1.57  55 1.78  57 1.78  46 1.82  48 1.82  53 1.82
  51  0.897  0.162  0.897-  33 1.57  55 1.78  56 1.78  48 1.82  47 1.82  52 1.82
  52  0.001  0.169  0.001-  45 1.73  48 1.78  47 1.78  51 1.82  53 1.84  54 1.84
  53  0.001  0.001  0.169-  44 1.73  46 1.78  48 1.78  50 1.82  52 1.84  54 1.84
  54  0.169  0.001  0.001-  43 1.73  46 1.78  47 1.78  49 1.82  53 1.84  52 1.84
  55  0.831  0.999  0.999-  42 1.73  51 1.78  50 1.78  48 1.82  56 1.84  57 1.84
  56  0.999  0.999  0.831-  41 1.73  49 1.78  51 1.78  47 1.82  55 1.84  57 1.84
  57  0.999  0.831  0.999-  40 1.73  49 1.78  50 1.78  46 1.82  56 1.84  55 1.84
  58  0.178  0.349  0.004-  45 1.80  34 1.85  75 1.86  67 1.87  70 1.89  69 1.91
  59  0.004  0.178  0.349-  44 1.80  35 1.85  74 1.86  69 1.87  71 1.89  68 1.91
  60  0.349  0.004  0.178-  43 1.80  36 1.85  73 1.86  68 1.87  72 1.89  67 1.91
  61  0.651  0.822  0.996-  42 1.80  37 1.85  72 1.86  64 1.87  73 1.89  66 1.91
  62  0.822  0.996  0.651-  41 1.80  38 1.85  71 1.86  66 1.87  74 1.89  65 1.91
  63  0.996  0.651  0.822-  40 1.80  39 1.85  70 1.86  65 1.87  75 1.89  64 1.91
  64  0.822  0.651  0.996-  40 1.80  39 1.85  81 1.86  61 1.87  76 1.89  63 1.91
  65  0.996  0.822  0.651-  41 1.80  38 1.85  80 1.86  63 1.87  77 1.89  62 1.91
  66  0.651  0.996  0.822-  42 1.80  37 1.85  79 1.86  62 1.87  78 1.89  61 1.91
  67  0.349  0.178  0.004-  43 1.80  36 1.85  78 1.86  58 1.87  79 1.89  60 1.91
  68  0.178  0.004  0.349-  44 1.80  35 1.85  77 1.86  60 1.87  80 1.89  59 1.91
  69  0.004  0.349  0.178-  45 1.80  34 1.85  76 1.86  59 1.87  81 1.89  58 1.91
  70  0.166  0.554  0.891-  85 1.71  75 1.80  40 1.80  63 1.86  34 1.86  58 1.89
  71  0.891  0.166  0.554-  87 1.71  74 1.80  41 1.80  62 1.86  35 1.86  59 1.89
  72  0.554  0.891  0.166-  86 1.71  73 1.80  42 1.80  61 1.86  36 1.86  60 1.89
  73  0.446  0.834  0.109-  82 1.71  72 1.80  43 1.80  60 1.86  37 1.86  61 1.89
  74  0.834  0.109  0.446-  84 1.71  71 1.80  44 1.80  59 1.86  38 1.86  62 1.89
  75  0.109  0.446  0.834-  83 1.71  70 1.80  45 1.80  58 1.86  39 1.86  63 1.89
  76  0.834  0.446  0.109-  91 1.71  81 1.80  45 1.80  69 1.86  39 1.86  64 1.89
  77  0.109  0.834  0.446-  93 1.71  80 1.80  44 1.80  68 1.86  38 1.86  65 1.89
  78  0.446  0.109  0.834-  92 1.71  79 1.80  43 1.80  67 1.86  37 1.86  66 1.89
  79  0.554  0.166  0.891-  88 1.71  78 1.80  42 1.80  66 1.86  36 1.86  67 1.89
  80  0.166  0.891  0.554-  90 1.71  77 1.80  41 1.80  65 1.86  35 1.86  68 1.89
  81  0.891  0.554  0.166-  89 1.71  76 1.80  40 1.80  64 1.86  34 1.86  69 1.89
  82  0.377  0.681  0.202-  73 1.71  16 1.77  11 1.78  28 1.82  94 1.85  93 1.92
  83  0.202  0.377  0.681-  75 1.71  17 1.77  12 1.78  29 1.82  95 1.85  92 1.92
  84  0.681  0.202  0.377-  74 1.71  18 1.77  10 1.78  30 1.82  96 1.85  91 1.92
  85  0.319  0.623  0.798-  70 1.71  19 1.77  14 1.78  31 1.82  97 1.85  90 1.92
  86  0.623  0.798  0.319-  72 1.71  20 1.77  15 1.78  32 1.82  98 1.85  89 1.92
  87  0.798  0.319  0.623-  71 1.71  21 1.77  13 1.78  33 1.82  99 1.85  88 1.92
  88  0.623  0.319  0.798-  79 1.71  21 1.77  14 1.78  33 1.82 100 1.85  87 1.92
  89  0.798  0.623  0.319-  81 1.71  20 1.77  13 1.78  32 1.82 101 1.85  86 1.92
  90  0.319  0.798  0.623-  80 1.71  19 1.77  15 1.78  31 1.82 102 1.85  85 1.92
  91  0.681  0.377  0.202-  76 1.71  18 1.77  11 1.78  30 1.82 103 1.85  84 1.92
  92  0.377  0.202  0.681-  78 1.71  17 1.77  10 1.78  29 1.82 104 1.85  83 1.92
  93  0.202  0.681  0.377-  77 1.71  16 1.77  12 1.78  28 1.82 105 1.85  82 1.92
  94  0.361  0.583  0.094-  97 1.66  28 1.74  22 1.82   5 1.83  82 1.85  11 1.88
  95  0.094  0.361  0.583-  99 1.66  29 1.74  23 1.82   6 1.83  83 1.85  12 1.88
  96  0.583  0.094  0.361-  98 1.66  30 1.74  24 1.82   4 1.83  84 1.85  10 1.88
  97  0.417  0.639  0.906-  94 1.66  31 1.74  25 1.82   8 1.83  85 1.85  14 1.88
  98  0.639  0.906  0.417-  96 1.66  32 1.74  26 1.82   9 1.83  86 1.85  15 1.88
  99  0.906  0.417  0.639-  95 1.66  33 1.74  27 1.82   7 1.83  87 1.85  13 1.88
 100  0.639  0.417  0.906- 103 1.66  33 1.74  27 1.82   8 1.83  88 1.85  14 1.88
 101  0.906  0.639  0.417- 105 1.66  32 1.74  26 1.82   7 1.83  89 1.85  13 1.88
 102  0.417  0.906  0.639- 104 1.66  31 1.74  25 1.82   9 1.83  90 1.85  15 1.88
 103  0.583  0.361  0.094- 100 1.66  30 1.74  24 1.82   5 1.83  91 1.85  11 1.88
 104  0.361  0.094  0.583- 102 1.66  29 1.74  23 1.82   4 1.83  92 1.85  10 1.88
 105  0.094  0.583  0.361- 101 1.66  28 1.74  22 1.82   6 1.83  93 1.85  12 1.88
 
  LATTYP: Found a trigonal (rhomboedric) cell.
 ALAT       =    10.1712934826
 COS(alpha) =     0.4194511871
  
  Lattice vectors:
  
 A1 = (   5.4800000000,   3.1638794750,   7.9633333333)
 A2 = (  -5.4800000000,   3.1638794750,   7.9633333333)
 A3 = (   0.0000000000,  -6.3277589500,   7.9633333333)
 Subroutine PRICEL returns:
 Original cell was already a primitive cell.
 

Analysis of symmetry for initial positions (statically):

 Routine SETGRP: Setting up the symmetry group for a 
 trigonal (rhombohedral) supercell.


 Subroutine GETGRP returns: Found 12 space group operations
 (whereof 12 operations were pure point group operations)
 out of a pool of 12 trial point group operations.


The static configuration has the point symmetry D_3d.

Analysis of symmetry for dynamics (positions and initial velocities):

 Subroutine DYNSYM returns: Found 12 space group operations
 (whereof 12 operations were pure point group operations)
 out of a pool of 12 trial space group operations
 (whereof 12 operations were pure point group operations)
 and found also     1 'primitive' translations


The dynamic configuration has the point symmetry D_3d.
 
 
 KPOINTS: Automatic mesh                          

Automatic generation of k-mesh.
 
 Subroutine IBZKPT returns following result:
 ===========================================
 
 Found      6 irreducible k-points:
 
 Following reciprocal coordinates:
            Coordinates               Weight
  0.000000  0.000000  0.000000      1.000000
  0.333333  0.000000  0.000000      6.000000
  0.333333  0.333333  0.000000      6.000000
 -0.333333  0.333333  0.000000      6.000000
  0.333333  0.333333  0.333333      2.000000
 -0.333333  0.333333  0.333333      6.000000
 
 Following cartesian coordinates:
            Coordinates               Weight
  0.000000  0.000000  0.000000      1.000000
  0.030414  0.017559  0.013953      6.000000
  0.000000  0.035119  0.027906      6.000000
 -0.060827  0.000000  0.000000      6.000000
  0.000000  0.000000  0.041859      2.000000
 -0.060827 -0.035119  0.013953      6.000000
 


--------------------------------------------------------------------------------------------------------




 Dimension of arrays:
   k-points           NKPTS =      6   k-points in BZ     NKDIM =      6   number of bands    NBANDS=    212
   number of dos      NEDOS =    301   number of ions     NIONS =    105
   non local maximal  LDIM  =      4   non local SUM 2l+1 LMDIM =      8
   total plane-waves  NPLWV = 110592
   max r-space proj   IRMAX =   1783   max aug-charges    IRDMAX=   2281
   dimension x,y,z NGX =    48 NGY =   48 NGZ =   48
   dimension x,y,z NGXF=    96 NGYF=   96 NGZF=   96
   support grid    NGXF=    96 NGYF=   96 NGZF=   96
   ions per type =             105
 NGX,Y,Z   is equivalent  to a cutoff of   7.85,  7.85,  7.85 a.u.
 NGXF,Y,Z  is equivalent  to a cutoff of  15.69, 15.69, 15.69 a.u.


 I would recommend the setting:
   dimension x,y,z NGX =    44 NGY =   44 NGZ =   44
 SYSTEM =  B105                                    
 POSCAR =  XYZ.pcell: B105                         

 Startparameter for this run:
   NWRITE =      2    write-flag & timer
   PREC   = normal    normal or accurate (medium, high low for compatibility)
   ISTART =      0    job   : 0-new  1-cont  2-samecut
   ICHARG =      2    charge: 1-file 2-atom 10-const
   ISPIN  =      1    spin polarized calculation?
   LNONCOLLINEAR =      F non collinear calculations
   LSORBIT =      F    spin-orbit coupling
   INIWAV =      1    electr: 0-lowe 1-rand  2-diag
   LASPH  =      F    aspherical Exc in radial PAW
   METAGGA=      F    non-selfconsistent MetaGGA calc.

 Electronic Relaxation 1
   ENCUT  =  318.6 eV  23.42 Ry    4.84 a.u.  14.80 14.80 14.80*2*pi/ulx,y,z
   ENINI  =  318.6     initial cutoff
   ENAUG  =  535.5 eV  augmentation charge cutoff
   NELM   =     40;   NELMIN=  2; NELMDL=  0     # of ELM steps 
   EDIFF  = 0.1E-05   stopping-criterion for ELM
   LREAL  =      T    real-space projection
   LCOMPAT=      F    compatible to vasp.4.4
   GGA_COMPAT  = T    GGA compatible to vasp.4.4-vasp.4.6
   LMAXPAW     = -100 max onsite density
   LMAXMIX     =    2 max onsite mixed and CHGCAR
   VOSKOWN=      0    Vosko Wilk Nusair interpolation
   ROPT   =   -0.00050
 Ionic relaxation
   EDIFFG = 0.1E-04   stopping-criterion for IOM
   NSW    =     10    number of steps for IOM
   NBLOCK =      1;   KBLOCK =     10    inner block; outer block 
   IBRION =      2    ionic relax: 0-MD 1-quasi-New 2-CG
   NFREE  =      1    steps in history (QN), initial steepest desc. (CG)
   ISIF   =      3    stress and relaxation
   IWAVPR =     11    prediction:  0-non 1-charg 2-wave 3-comb
   ISYM   =      2    0-nonsym 1-usesym 2-fastsym
   LCORR  =      T    Harris-Foulkes like correction to forces

   POTIM  = 0.2500    time-step for ionic-motion
   TEIN   =    0.0    initial temperature
   TEBEG  =    0.0;   TEEND  =   0.0 temperature during run
   SMASS  =  -3.00    Nose mass-parameter (am)
   estimated Nose-frequenzy (Omega)   =  0.10E-29 period in steps =****** mass=  -0.236E-26a.u.
   SCALEE = 1.0000    scale energy and forces
   NPACO  =    256;   APACO  = 16.0  distance and # of slots for P.C.
   PSTRESS=    0.0 pullay stress

  Mass of Ions in am
   POMASS =  10.81
  Ionic Valenz
   ZVAL   =   3.00
  Atomic Wigner-Seitz radii
   RWIGS  =  -1.00
  virtual crystal weights 
   VCA    =   1.00
   NELECT =     315.0000    total number of electrons
   NUPDOWN=      -1.0000    fix difference up-down

 DOS related values:
   EMIN   =  10.00;   EMAX   =-10.00  energy-range for DOS
   EFERMI =   0.00
   ISMEAR =     1;   SIGMA  =   0.20  broadening in eV -4-tet -1-fermi 0-gaus

 Electronic relaxation 2 (details)
   IALGO  =     38    algorithm
   LDIAG  =      T    sub-space diagonalisation (order eigenvalues)
   LSUBROT=      T    optimize rotation matrix (better conditioning)
   TURBO    =      0    0=normal 1=particle mesh
   IRESTART =      0    0=no restart 2=restart with 2 vectors
   NREBOOT  =      0    no. of reboots
   NMIN     =      0    reboot dimension
   EREF     =   0.00    reference energy to select bands
   IMIX   =      4    mixing-type and parameters
     AMIX     =   0.40;   BMIX     =  1.00
     AMIX_MAG =   1.60;   BMIX_MAG =  1.00
     AMIN     =   0.10
     WC   =   100.;   INIMIX=   1;  MIXPRE=   1

 Intra band minimization:
   WEIMIN = 0.0010     energy-eigenvalue tresh-hold
   EBREAK =  0.12E-08  absolut break condition
   DEPER  =   0.30     relativ break condition  

   TIME   =   0.40     timestep for ELM

  volume/ion in A,a.u.               =       7.89        53.24
  Fermi-wavevector in a.u.,A,eV,Ry     =   1.186031  2.241274 19.138909  1.406670
  Thomas-Fermi vector in A             =   2.322213
 
 Write flags
   LWAVE  =      F    write WAVECAR
   LCHARG =      F    write CHGCAR
   LVTOT  =      F    write LOCPOT, total local potential
   LVHAR  =      F    write LOCPOT, Hartree potential only
   LELF   =      F    write electronic localiz. function (ELF)
   LORBIT =      0    0 simple, 1 ext, 2 COOP (PROOUT)


 Dipole corrections
   LMONO  =      F    monopole corrections only (constant potential shift)
   LDIPOL =      F    correct potential (dipole corrections)
   IDIPOL =      0    1-x, 2-y, 3-z, 4-all directions 
   EPSILON=  1.0000000 bulk dielectric constant

 Exchange correlation treatment:
   GGA     =    --    GGA type
   LEXCH   =     8    internal setting for exchange type
   VOSKOWN=      0    Vosko Wilk Nusair interpolation
   LHFCALC =     F    Hartree Fock is set to
   LHFONE  =     F    Hartree Fock one center treatment
   AEXX    =    0.0000 exact exchange contribution

 Linear response parameters
   LEPSILON=     F    determine dielectric tensor
   LRPA    =     F    only Hartree local field effects (RPA)
   LNABLA  =     F    use nabla operator in PAW spheres
   LVEL    =     F    velocity operator in full k-point grid
   LINTERFAST=   F  fast interpolation
   KINTER  =     0    interpolate to denser k-point grid
   CSHIFT  =0.1000    complex shift for real part using Kramers Kronig
   OMEGAMAX=  -1.0    maximum frequency
   RTIME   =    0.100 relaxation time in fs

 Orbital magnetization related:
   ORBITALMAG=     F  switch on orbital magnetization
   LCHIMAG   =     F  perturbation theory with respect to B field
   DQ        =  0.001000  dq finite difference perturbation B field



--------------------------------------------------------------------------------------------------------


 conjugate gradient relaxation of ions
 charge density and potential will be updated during run
 non-spin polarized calculation
 Variant of blocked Davidson
 Davidson routine will perform the subspace rotation
 perform sub-space diagonalisation
    after iterative eigenvector-optimisation
 modified Broyden-mixing scheme, WC =      100.0
 initial mixing is a Kerker type mixing with AMIX =  0.4000 and BMIX =      1.0000
 Hartree-type preconditioning will be used
 using additional bands           54
 real space projection scheme for non local part
 use partial core corrections
 calculate Harris-corrections to forces 
   (improved forces if not selfconsistent)
 use gradient corrections 
 use of overlap-Matrix (Vanderbilt PP)
 Methfessel and Paxton  Order N= 1 SIGMA  =   0.20


--------------------------------------------------------------------------------------------------------


  energy-cutoff  :      318.61
  volume of cell :      828.41
      direct lattice vectors                 reciprocal lattice vectors
     5.480000000  3.163879475  7.963333333     0.091240876  0.052677944  0.041858518
    -5.480000000  3.163879475  7.963333333    -0.091240876  0.052677944  0.041858518
     0.000000000 -6.327758950  7.963333333     0.000000000 -0.105355889  0.041858518

  length of vectors
    10.171293483 10.171293483 10.171293482     0.113366656  0.113366656  0.113366656


 
 k-points in units of 2pi/SCALE and weight: Automatic mesh                          
   0.00000000  0.00000000  0.00000000       0.037
   0.03041363  0.01755931  0.01395284       0.222
   0.00000000  0.03511863  0.02790568       0.222
  -0.06082725  0.00000000  0.00000000       0.222
   0.00000000  0.00000000  0.04185852       0.074
  -0.06082725 -0.03511863  0.01395284       0.222
 
 k-points in reciprocal lattice and weights: Automatic mesh                          
   0.00000000  0.00000000  0.00000000       0.037
   0.33333333  0.00000000  0.00000000       0.222
   0.33333333  0.33333333  0.00000000       0.222
  -0.33333333  0.33333333  0.00000000       0.222
   0.33333333  0.33333333  0.33333333       0.074
  -0.33333333  0.33333333  0.33333333       0.222
 
 position of ions in fractional coordinates (direct lattice) 
   0.50000000  0.50000000  0.50000000
   0.38670000  0.38670000  0.38670000
   0.61330000  0.61330000  0.61330000
   0.38700000  0.21600000  0.38700000
   0.38700000  0.38700000  0.21600000
   0.21600000  0.38700000  0.38700000
   0.78400000  0.61300000  0.61300000
   0.61300000  0.61300000  0.78400000
   0.61300000  0.78400000  0.61300000
   0.48900000  0.21900000  0.48900000
   0.48900000  0.48900000  0.21900000
   0.21900000  0.48900000  0.48900000
   0.78100000  0.51100000  0.51100000
   0.51100000  0.51100000  0.78100000
   0.51100000  0.78100000  0.51100000
   0.38700000  0.56700000  0.38700000
   0.38700000  0.38700000  0.56700000
   0.56700000  0.38700000  0.38700000
   0.43300000  0.61300000  0.61300000
   0.61300000  0.61300000  0.43300000
   0.61300000  0.43300000  0.61300000
   0.20200000  0.50500000  0.20200000
   0.20200000  0.20200000  0.50500000
   0.50500000  0.20200000  0.20200000
   0.49500000  0.79800000  0.79800000
   0.79800000  0.79800000  0.49500000
   0.79800000  0.49500000  0.79800000
   0.19700000  0.68900000  0.19700000
   0.19700000  0.19700000  0.68900000
   0.68900000  0.19700000  0.19700000
   0.31100000  0.80300000  0.80300000
   0.80300000  0.80300000  0.31100000
   0.80300000  0.31100000  0.80300000
   0.10200000  0.49500000  0.10200000
   0.10200000  0.10200000  0.49500000
   0.49500000  0.10200000  0.10200000
   0.50500000  0.89800000  0.89800000
   0.89800000  0.89800000  0.50500000
   0.89800000  0.50500000  0.89800000
   0.99300000  0.66600000  0.99300000
   0.99300000  0.99300000  0.66600000
   0.66600000  0.99300000  0.99300000
   0.33400000  0.00700000  0.00700000
   0.00700000  0.00700000  0.33400000
   0.00700000  0.33400000  0.00700000
   0.10300000  0.83800000  0.10300000
   0.10300000  0.10300000  0.83800000
   0.83800000  0.10300000  0.10300000
   0.16200000  0.89700000  0.89700000
   0.89700000  0.89700000  0.16200000
   0.89700000  0.16200000  0.89700000
   0.00100000  0.16900000  0.00100000
   0.00100000  0.00100000  0.16900000
   0.16900000  0.00100000  0.00100000
   0.83100000  0.99900000  0.99900000
   0.99900000  0.99900000  0.83100000
   0.99900000  0.83100000  0.99900000
   0.17800000  0.34900000  0.00400000
   0.00400000  0.17800000  0.34900000
   0.34900000  0.00400000  0.17800000
   0.65100000  0.82200000  0.99600000
   0.82200000  0.99600000  0.65100000
   0.99600000  0.65100000  0.82200000
   0.82200000  0.65100000  0.99600000
   0.99600000  0.82200000  0.65100000
   0.65100000  0.99600000  0.82200000
   0.34900000  0.17800000  0.00400000
   0.17800000  0.00400000  0.34900000
   0.00400000  0.34900000  0.17800000
   0.16600000  0.55400000  0.89100000
   0.89100000  0.16600000  0.55400000
   0.55400000  0.89100000  0.16600000
   0.44600000  0.83400000  0.10900000
   0.83400000  0.10900000  0.44600000
   0.10900000  0.44600000  0.83400000
   0.83400000  0.44600000  0.10900000
   0.10900000  0.83400000  0.44600000
   0.44600000  0.10900000  0.83400000
   0.55400000  0.16600000  0.89100000
   0.16600000  0.89100000  0.55400000
   0.89100000  0.55400000  0.16600000
   0.37700000  0.68100000  0.20200000
   0.20200000  0.37700000  0.68100000
   0.68100000  0.20200000  0.37700000
   0.31900000  0.62300000  0.79800000
   0.62300000  0.79800000  0.31900000
   0.79800000  0.31900000  0.62300000
   0.62300000  0.31900000  0.79800000
   0.79800000  0.62300000  0.31900000
   0.31900000  0.79800000  0.62300000
   0.68100000  0.37700000  0.20200000
   0.37700000  0.20200000  0.68100000
   0.20200000  0.68100000  0.37700000
   0.36100000  0.58300000  0.09400000
   0.09400000  0.36100000  0.58300000
   0.58300000  0.09400000  0.36100000
   0.41700000  0.63900000  0.90600000
   0.63900000  0.90600000  0.41700000
   0.90600000  0.41700000  0.63900000
   0.63900000  0.41700000  0.90600000
   0.90600000  0.63900000  0.41700000
   0.41700000  0.90600000  0.63900000
   0.58300000  0.36100000  0.09400000
   0.36100000  0.09400000  0.58300000
   0.09400000  0.58300000  0.36100000
 
 position of ions in cartesian coordinates  (Angst):
   0.00000000  0.00000000 11.94500000
   0.00000000  0.00000000  9.23826300
   0.00000000  0.00000000 14.65173700
   0.93708000 -0.54102339  7.88370000
   0.00000000  1.08204678  7.88370000
  -0.93708000 -0.54102339  7.88370000
   0.93708000  0.54102339 16.00630000
   0.00000000 -1.08204678 16.00630000
  -0.93708000  0.54102339 16.00630000
   1.47960000 -0.85424746  9.53211000
   0.00000000  1.70849492  9.53211000
  -1.47960000 -0.85424746  9.53211000
   1.47960000  0.85424746 14.35789000
   0.00000000 -1.70849492 14.35789000
  -1.47960000  0.85424746 14.35789000
  -0.98640000  0.56949831 10.67883000
   0.00000000 -1.13899661 10.67883000
   0.98640000  0.56949831 10.67883000
  -0.98640000 -0.56949831 13.21117000
   0.00000000  1.13899661 13.21117000
   0.98640000 -0.56949831 13.21117000
  -1.66044000  0.95865548  7.23867000
   0.00000000 -1.91731096  7.23867000
   1.66044000  0.95865548  7.23867000
  -1.66044000 -0.95865548 16.65133000
   0.00000000  1.91731096 16.65133000
   1.66044000 -0.95865548 16.65133000
  -2.69616000  1.55662870  8.62429000
   0.00000000 -3.11325740  8.62429000
   2.69616000  1.55662870  8.62429000
  -2.69616000 -1.55662870 15.26571000
   0.00000000  3.11325740 15.26571000
   2.69616000 -1.55662870 15.26571000
  -2.15364000  1.24340463  5.56637000
   0.00000000 -2.48680927  5.56637000
   2.15364000  1.24340463  5.56637000
  -2.15364000 -1.24340463 18.32363000
   0.00000000  2.48680927 18.32363000
   2.15364000 -1.24340463 18.32363000
   1.79196000 -1.03458859 21.11876000
   0.00000000  2.06917718 21.11876000
  -1.79196000 -1.03458859 21.11876000
   1.79196000  1.03458859  2.77124000
   0.00000000 -2.06917718  2.77124000
  -1.79196000  1.03458859  2.77124000
  -4.02780000  2.32545141  8.31372000
   0.00000000 -4.65090283  8.31372000
   4.02780000  2.32545141  8.31372000
  -4.02780000 -2.32545141 15.57628000
   0.00000000  4.65090283 15.57628000
   4.02780000 -2.32545141 15.57628000
  -0.92064000  0.53153175  1.36173000
   0.00000000 -1.06306350  1.36173000
   0.92064000  0.53153175  1.36173000
  -0.92064000 -0.53153175 22.52827000
   0.00000000  1.06306350 22.52827000
   0.92064000 -0.53153175 22.52827000
  -0.93708000  1.64205345  4.22853000
  -0.95352000 -1.63256181  4.22853000
   1.89060000 -0.00949164  4.22853000
  -0.93708000 -1.64205345 19.66147000
  -0.95352000  1.63256181 19.66147000
   1.89060000  0.00949164 19.66147000
   0.93708000 -1.64205345 19.66147000
   0.95352000  1.63256181 19.66147000
  -1.89060000  0.00949164 19.66147000
   0.93708000  1.64205345  4.22853000
   0.95352000 -1.63256181  4.22853000
  -1.89060000 -0.00949164  4.22853000
  -2.12624000 -3.36004000 12.82893000
   3.97300000 -0.16135785 12.82893000
  -1.84676000  3.52139786 12.82893000
  -2.12624000  3.36004000 11.06107000
   3.97300000  0.16135785 11.06107000
  -1.84676000 -3.52139786 11.06107000
   2.12624000  3.36004000 11.06107000
  -3.97300000  0.16135785 11.06107000
   1.84676000 -3.52139786 11.06107000
   2.12624000 -3.36004000 12.82893000
  -3.97300000 -0.16135785 12.82893000
   1.84676000  3.52139786 12.82893000
  -1.66592000  2.06917718 10.03380000
  -0.95900000 -2.47731763 10.03380000
   2.62492000  0.40814045 10.03380000
  -1.66592000 -2.06917718 13.85620000
  -0.95900000  2.47731763 13.85620000
   2.62492000 -0.40814045 13.85620000
   1.66592000 -2.06917718 13.85620000
   0.95900000  2.47731763 13.85620000
  -2.62492000 -0.40814045 13.85620000
   1.66592000  2.06917718 10.03380000
   0.95900000 -2.47731763 10.03380000
  -2.62492000  0.40814045 10.03380000
  -1.21656000  2.39189288  8.26594000
  -1.46316000 -2.24951831  8.26594000
   2.67972000 -0.14237458  8.26594000
  -1.21656000 -2.39189288 15.62406000
  -1.46316000  2.24951831 15.62406000
   2.67972000  0.14237458 15.62406000
   1.21656000 -2.39189288 15.62406000
   1.46316000  2.24951831 15.62406000
  -2.67972000  0.14237458 15.62406000
   1.21656000  2.39189288  8.26594000
   1.46316000 -2.24951831  8.26594000
  -2.67972000 -0.14237458  8.26594000
 


--------------------------------------------------------------------------------------------------------


 k-point  1 :  0.00000.00000.0000  plane waves:   10703
 k-point  2 :  0.33330.00000.0000  plane waves:   10681
 k-point  3 :  0.33330.33330.0000  plane waves:   10713
 k-point  4 :  -.33330.33330.0000  plane waves:   10700
 k-point  5 :  0.33330.33330.3333  plane waves:   10685
 k-point  6 :  -.33330.33330.3333  plane waves:   10684

 maximum and minimum number of plane-waves per node :     10713    10681

 maximum number of plane-waves:     10713
 maximum index in each direction: 
   IXMAX=   15   IYMAX=   14   IZMAX=   14
   IXMIN=  -15   IYMIN=  -15   IZMIN=  -15

 WARNING: aliasing errors must be expected set NGX to  62 to avoid them
 WARNING: aliasing errors must be expected set NGY to  60 to avoid them
 WARNING: aliasing errors must be expected set NGZ to  60 to avoid them
 aliasing errors are usually negligible using standard VASP settings
 and one can safely disregard these warnings

 serial   3D FFT for wavefunctions
 parallel 3D FFT for charge:
    minimum data exchange during FFTs selected (reduces bandwidth)


 total amount of memory used by VASP on root node   127929. kBytes
========================================================================

   base      :      30000. kBytes
   nonlr-proj:      15558. kBytes
   fftplans  :       8029. kBytes
   grid      :      15224. kBytes
   one-center:        322. kBytes
   wavefun   :      58796. kBytes
 
 Broyden mixing: mesh for mixing (old mesh)
   NGX = 29   NGY = 29   NGZ = 29
  (NGX  = 96   NGY  = 96   NGZ  = 96)
  gives a total of  24389 points

 initial charge density was supplied:
 charge density of overlapping atoms calculated
 number of electron     315.0000000 magnetization 
 keeping initial charge density in first step


--------------------------------------------------------------------------------------------------------


 Maximum index for non-local projection operator         1698
 Maximum index for augmentation-charges          525 (set IRDMAX)


--------------------------------------------------------------------------------------------------------


 First call to EWALD:  gamma=   0.189
 Maximum number of real-space cells 3x 3x 3
 Maximum number of reciprocal cells 3x 3x 3

    FEWALD:  cpu time    0.05: real time    0.06


----------------------------------------- Iteration    1(   1)  ---------------------------------------


    POTLOK:  cpu time    0.24: real time    0.24
    SETDIJ:  cpu time    0.04: real time    0.04
     EDDAV:  cpu time   26.49: real time   26.60
       DOS:  cpu time    0.00: real time    0.00
    --------------------------------------------
      LOOP:  cpu time   26.77: real time   26.89

 eigenvalue-minimisations  :  2544
 total energy-change (2. order) : 0.5276792E+03  (-0.1074276E+05)
 number of electron     315.0000000 magnetization 
 augmentation part      315.0000000 magnetization 

 Free energy of the ion-electron system (eV)
  ---------------------------------------------------
  alpha Z        PSCENC =       915.56556555
  Ewald energy   TEWEN  =     -7941.08486561
  -1/2 Hartree   DENC   =     -1225.52278932
  -exchange  EXHF       =         0.00000000
  -V(xc)+E(xc)   XCENC  =       753.10137989
  PAW double counting   =      4567.48587808    -4477.67728361
  entropy T*S    EENTRO =        -0.00619712
  eigenvalues    EBANDS =       463.68565795
  atomic energy  EATOM  =      7472.13187919
  ---------------------------------------------------
  free energy    TOTEN  =       527.67922499 eV

  energy without entropy =      527.68542211  energy(sigma->0) =      527.68129070


--------------------------------------------------------------------------------------------------------


 E-fermi :  12.3847     XC(G=0): -11.4031     alpha+bet :-14.0678


 k-point   1 :       0.0000    0.0000    0.0000
  band No.  band energies     occupation 
      1     -12.5347      2.00000
      2     -12.2255      2.00000
      3      -9.9580      2.00000
      4      -9.5692      2.00000
      5      -9.4693      2.00000
      6      -9.3128      2.00000
      7      -9.1885      2.00000
      8      -9.0356      2.00000
      9      -8.8999      2.00000
     10      -8.7173      2.00000
     11      -8.5113      2.00000
     12      -8.1941      2.00000
     13      -6.9813      2.00000
     14      -6.7505      2.00000
     15      -6.5133      2.00000
     16      -6.3549      2.00000
     17      -6.1908      2.00000
     18      -5.8931      2.00000
     19      -5.7494      2.00000
     20      -5.5603      2.00000
     21      -5.4261      2.00000
     22      -5.3213      2.00000
     23      -5.2140      2.00000
     24      -5.1027      2.00000
     25      -5.0447      2.00000
     26      -4.8907      2.00000
     27      -4.7307      2.00000
     28      -4.6128      2.00000
     29      -4.4485      2.00000
     30      -4.3913      2.00000
     31      -4.2991      2.00000
     32      -4.2232      2.00000
     33      -4.1237      2.00000
     34      -3.8938      2.00000
     35      -3.8627      2.00000
     36      -3.6629      2.00000
     37      -3.5525      2.00000
     38      -3.3934      2.00000
     39      -2.9639      2.00000
     40      -2.8720      2.00000
     41      -2.5686      2.00000
     42      -2.4907      2.00000
     43      -2.3557      2.00000
     44      -2.2601      2.00000
     45      -2.1225      2.00000
     46      -1.9947      2.00000
     47      -1.8021      2.00000
     48      -1.6928      2.00000
     49      -1.6410      2.00000
     50      -1.4228      2.00000
     51      -1.2832      2.00000
     52      -1.2093      2.00000
     53      -1.1020      2.00000
     54      -0.9763      2.00000
     55      -0.9097      2.00000
     56      -0.8187      2.00000
     57      -0.6864      2.00000
     58      -0.5902      2.00000
     59      -0.5059      2.00000
     60      -0.4397      2.00000
     61      -0.2191      2.00000
     62      -0.1199      2.00000
     63       0.0481      2.00000
     64       0.1587      2.00000
     65       0.2162      2.00000
     66       0.2677      2.00000
     67       0.3654      2.00000
     68       0.4282      2.00000
     69       0.6856      2.00000
     70       0.7723      2.00000
     71       0.8104      2.00000
     72       0.9817      2.00000
     73       1.1311      2.00000
     74       1.1813      2.00000
     75       1.2521      2.00000
     76       1.4186      2.00000
     77       1.5180      2.00000
     78       1.6295      2.00000
     79       1.6602      2.00000
     80       1.7748      2.00000
     81       1.9060      2.00000
     82       2.0523      2.00000
     83       2.1409      2.00000
     84       2.2002      2.00000
     85       2.3164      2.00000
     86       2.4110      2.00000
     87       2.5086      2.00000
     88       2.6531      2.00000
     89       2.7129      2.00000
     90       2.8305      2.00000
     91       2.9315      2.00000
     92       3.0789      2.00000
     93       3.1395      2.00000
     94       3.2628      2.00000
     95       3.3134      2.00000
     96       3.3692      2.00000
     97       3.4485      2.00000
     98       3.5985      2.00000
     99       3.6431      2.00000
    100       3.8332      2.00000
    101       3.9532      2.00000
    102       4.0322      2.00000
    103       4.0735      2.00000
    104       4.2080      2.00000
    105       4.2489      2.00000
    106       4.4953      2.00000
    107       4.5991      2.00000
    108       4.6534      2.00000
    109       4.8287      2.00000
    110       4.9412      2.00000
    111       5.0420      2.00000
    112       5.1165      2.00000
    113       5.2901      2.00000
    114       5.3941      2.00000
    115       5.4919      2.00000
    116       5.5905      2.00000
    117       5.7428      2.00000
    118       5.8152      2.00000
    119       6.0510      2.00000
    120       6.0900      2.00000
    121       6.1857      2.00000
    122       6.3576      2.00000
    123       6.5512      2.00000
    124       6.6006      2.00000
    125       6.7848      2.00000
    126       6.9758      2.00000
    127       7.1054      2.00000
    128       7.2205      2.00000
    129       7.3195      2.00000
    130       7.5087      2.00000
    131       7.5748      2.00000
    132       7.6771      2.00000
    133       7.9408      2.00000
    134       8.0520      2.00000
    135       8.2962      2.00000
    136       8.4361      2.00000
    137       8.4914      2.00000
    138       8.6721      2.00000
    139       8.7448      2.00000
    140       8.9965      2.00000
    141       9.2005      2.00000
    142       9.4407      2.00000
    143       9.8127      2.00000
    144       9.9163      2.00000
    145      10.1098      2.00000
    146      10.1884      2.00000
    147      10.4381      2.00000
    148      10.7945      2.00000
    149      10.9125      2.00000
    150      11.0397      2.00000
    151      11.2360      2.00000
    152      11.5071      2.00000
    153      11.6438      2.00000
    154      11.7977      2.00027
    155      11.9191      2.00483
    156      12.1891      2.04536
    157      12.3011      1.64379
    158      12.4059      0.82160
    159      12.5559     -0.00598
    160      12.7969     -0.01307
    161      12.9924     -0.00015
    162      13.2662      0.00000
    163      13.3937      0.00000
    164      13.5534      0.00000
    165      13.7061      0.00000
    166      13.9009      0.00000
    167      13.9339      0.00000
    168      14.0295      0.00000
    169      14.1940      0.00000
    170      14.3283      0.00000
    171      14.5033      0.00000
    172      14.7142      0.00000
    173      14.8748      0.00000
    174      15.0064      0.00000
    175      15.1150      0.00000
    176      15.2893      0.00000
    177      15.4247      0.00000
    178      15.5681      0.00000
    179      15.6779      0.00000
    180      16.0259      0.00000
    181      16.1065      0.00000
    182      16.2266      0.00000
    183      16.4410      0.00000
    184      16.5415      0.00000
    185      16.7758      0.00000
    186      16.8819      0.00000
    187      17.0604      0.00000
    188      17.2288      0.00000
    189      17.3916      0.00000
    190      17.5732      0.00000
    191      17.6550      0.00000
    192      17.8557      0.00000
    193      17.9958      0.00000
    194      18.0961      0.00000
    195      18.4957      0.00000
    196      18.6272      0.00000
    197      18.6984      0.00000
    198      18.8818      0.00000
    199      19.1608      0.00000
    200      19.5012      0.00000
    201      19.6734      0.00000
    202      19.8449      0.00000
    203      20.0227      0.00000
    204      20.1994      0.00000
    205      20.2298      0.00000
    206      20.7314      0.00000
    207      21.2053      0.00000
    208      21.3284      0.00000
    209      21.6583      0.00000
    210      22.0773      0.00000
    211      22.4773      0.00000
    212      23.0427      0.00000

 k-point   2 :       0.3333    0.0000    0.0000
  band No.  band energies     occupation 
      1     -12.4088      2.00000
      2     -11.9510      2.00000
      3      -9.7276      2.00000
      4      -9.5974      2.00000
      5      -9.1851      2.00000
      6      -9.0968      2.00000
      7      -9.0079      2.00000
      8      -8.8771      2.00000
      9      -8.7573      2.00000
     10      -8.5628      2.00000
     11      -8.1925      2.00000
     12      -7.8010      2.00000
     13      -7.0958      2.00000
     14      -6.8734      2.00000
     15      -6.8043      2.00000
     16      -6.4898      2.00000
     17      -6.1392      2.00000
     18      -6.0402      2.00000
     19      -5.7810      2.00000
     20      -5.7206      2.00000
     21      -5.6834      2.00000
     22      -5.2933      2.00000
     23      -5.1574      2.00000
     24      -5.0514      2.00000
     25      -4.8936      2.00000
     26      -4.8035      2.00000
     27      -4.7292      2.00000
     28      -4.6201      2.00000
     29      -4.5184      2.00000
     30      -4.3455      2.00000
     31      -4.2758      2.00000
     32      -4.2564      2.00000
     33      -4.0052      2.00000
     34      -3.9110      2.00000
     35      -3.7253      2.00000
     36      -3.5147      2.00000
     37      -3.3656      2.00000
     38      -3.1024      2.00000
     39      -3.0160      2.00000
     40      -2.8378      2.00000
     41      -2.5960      2.00000
     42      -2.4672      2.00000
     43      -2.2836      2.00000
     44      -2.1384      2.00000
     45      -1.9608      2.00000
     46      -1.8398      2.00000
     47      -1.8002      2.00000
     48      -1.6122      2.00000
     49      -1.5618      2.00000
     50      -1.4981      2.00000
     51      -1.2913      2.00000
     52      -1.1997      2.00000
     53      -1.1458      2.00000
     54      -0.9683      2.00000
     55      -0.8734      2.00000
     56      -0.7845      2.00000
     57      -0.6195      2.00000
     58      -0.4780      2.00000
     59      -0.3459      2.00000
     60      -0.3122      2.00000
     61      -0.2080      2.00000
     62      -0.1147      2.00000
     63      -0.0199      2.00000
     64       0.1340      2.00000
     65       0.1977      2.00000
     66       0.3147      2.00000
     67       0.4397      2.00000
     68       0.5003      2.00000
     69       0.6633      2.00000
     70       0.6919      2.00000
     71       0.8146      2.00000
     72       0.8963      2.00000
     73       0.9856      2.00000
     74       1.0896      2.00000
     75       1.1314      2.00000
     76       1.2396      2.00000
     77       1.3827      2.00000
     78       1.5514      2.00000
     79       1.6956      2.00000
     80       1.7522      2.00000
     81       1.8516      2.00000
     82       1.9792      2.00000
     83       2.0537      2.00000
     84       2.2224      2.00000
     85       2.3275      2.00000
     86       2.3859      2.00000
     87       2.5014      2.00000
     88       2.5610      2.00000
     89       2.5760      2.00000
     90       2.6711      2.00000
     91       2.7775      2.00000
     92       2.8897      2.00000
     93       3.0117      2.00000
     94       3.0910      2.00000
     95       3.1834      2.00000
     96       3.2559      2.00000
     97       3.3682      2.00000
     98       3.5703      2.00000
     99       3.6672      2.00000
    100       3.8341      2.00000
    101       3.9491      2.00000
    102       3.9983      2.00000
    103       4.1596      2.00000
    104       4.1830      2.00000
    105       4.4053      2.00000
    106       4.4735      2.00000
    107       4.6140      2.00000
    108       4.6686      2.00000
    109       4.6826      2.00000
    110       4.8620      2.00000
    111       4.9457      2.00000
    112       5.0516      2.00000
    113       5.2583      2.00000
    114       5.2838      2.00000
    115       5.3633      2.00000
    116       5.4869      2.00000
    117       5.6394      2.00000
    118       5.7030      2.00000
    119       5.8289      2.00000
    120       5.8867      2.00000
    121       6.0208      2.00000
    122       6.2511      2.00000
    123       6.4648      2.00000
    124       6.5800      2.00000
    125       6.6799      2.00000
    126       6.8478      2.00000
    127       6.9311      2.00000
    128       7.0783      2.00000
    129       7.3183      2.00000
    130       7.5160      2.00000
    131       7.6271      2.00000
    132       7.8389      2.00000
    133       7.9565      2.00000
    134       8.1336      2.00000
    135       8.1921      2.00000
    136       8.3310      2.00000
    137       8.5734      2.00000
    138       8.7765      2.00000
    139       8.9080      2.00000
    140       9.0702      2.00000
    141       9.2121      2.00000
    142       9.4395      2.00000
    143       9.5610      2.00000
    144       9.8260      2.00000
    145      10.1372      2.00000
    146      10.2222      2.00000
    147      10.4409      2.00000
    148      10.5501      2.00000
    149      10.6824      2.00000
    150      10.8727      2.00000
    151      11.0189      2.00000
    152      11.2075      2.00000
    153      11.3433      2.00000
    154      11.5697      2.00000
    155      11.7775      2.00015
    156      11.9050      2.00360
    157      12.0977      2.06083
    158      12.2692      1.81919
    159      12.4333      0.60170
    160      12.5649     -0.02319
    161      12.9252     -0.00089
    162      13.1299      0.00000
    163      13.2841      0.00000
    164      13.3743      0.00000
    165      13.5560      0.00000
    166      13.7795      0.00000
    167      13.8956      0.00000
    168      13.9881      0.00000
    169      14.1396      0.00000
    170      14.3600      0.00000
    171      14.4282      0.00000
    172      14.5280      0.00000
    173      14.6803      0.00000
    174      14.9158      0.00000
    175      15.0169      0.00000
    176      15.2743      0.00000
    177      15.5113      0.00000
    178      15.6321      0.00000
    179      15.8482      0.00000
    180      15.9065      0.00000
    181      16.1646      0.00000
    182      16.2632      0.00000
    183      16.5060      0.00000
    184      16.6503      0.00000
    185      16.7928      0.00000
    186      16.9054      0.00000
    187      16.9393      0.00000
    188      17.1119      0.00000
    189      17.4037      0.00000
    190      17.6132      0.00000
    191      17.7872      0.00000
    192      17.8657      0.00000
    193      18.1093      0.00000
    194      18.3257      0.00000
    195      18.4407      0.00000
    196      18.5083      0.00000
    197      18.9174      0.00000
    198      19.0927      0.00000
    199      19.3352      0.00000
    200      19.4742      0.00000
    201      19.6996      0.00000
    202      19.7838      0.00000
    203      20.1261      0.00000
    204      20.2514      0.00000
    205      20.7287      0.00000
    206      20.9054      0.00000
    207      21.2061      0.00000
    208      21.4865      0.00000
    209      21.7795      0.00000
    210      22.1500      0.00000
    211      22.3085      0.00000
    212      22.6357      0.00000

 k-point   3 :       0.3333    0.3333    0.0000
  band No.  band energies     occupation 
      1     -12.4833      2.00000
      2     -12.1126      2.00000
      3      -9.8281      2.00000
      4      -9.5046      2.00000
      5      -9.2370      2.00000
      6      -9.1781      2.00000
      7      -8.9804      2.00000
      8      -8.8988      2.00000
      9      -8.8095      2.00000
     10      -8.5378      2.00000
     11      -8.3174      2.00000
     12      -8.0020      2.00000
     13      -7.0096      2.00000
     14      -6.6637      2.00000
     15      -6.5447      2.00000
     16      -6.2617      2.00000
     17      -6.0987      2.00000
     18      -5.9406      2.00000
     19      -5.7426      2.00000
     20      -5.6560      2.00000
     21      -5.5625      2.00000
     22      -5.3762      2.00000
     23      -5.3578      2.00000
     24      -5.2686      2.00000
     25      -5.0222      2.00000
     26      -4.8814      2.00000
     27      -4.7753      2.00000
     28      -4.6237      2.00000
     29      -4.5566      2.00000
     30      -4.3653      2.00000
     31      -4.2806      2.00000
     32      -4.2255      2.00000
     33      -4.1492      2.00000
     34      -3.9273      2.00000
     35      -3.7768      2.00000
     36      -3.4070      2.00000
     37      -3.3159      2.00000
     38      -3.1877      2.00000
     39      -3.0735      2.00000
     40      -2.8181      2.00000
     41      -2.7361      2.00000
     42      -2.6045      2.00000
     43      -2.3879      2.00000
     44      -2.2259      2.00000
     45      -1.9847      2.00000
     46      -1.7045      2.00000
     47      -1.5512      2.00000
     48      -1.4153      2.00000
     49      -1.3777      2.00000
     50      -1.2897      2.00000
     51      -1.1458      2.00000
     52      -1.1037      2.00000
     53      -1.0467      2.00000
     54      -0.9144      2.00000
     55      -0.8461      2.00000
     56      -0.7758      2.00000
     57      -0.6862      2.00000
     58      -0.5396      2.00000
     59      -0.4356      2.00000
     60      -0.3201      2.00000
     61      -0.1668      2.00000
     62      -0.0905      2.00000
     63      -0.0427      2.00000
     64       0.1254      2.00000
     65       0.1863      2.00000
     66       0.3376      2.00000
     67       0.4342      2.00000
     68       0.5262      2.00000
     69       0.5994      2.00000
     70       0.7497      2.00000
     71       0.8121      2.00000
     72       0.9197      2.00000
     73       0.9937      2.00000
     74       1.1186      2.00000
     75       1.2126      2.00000
     76       1.3314      2.00000
     77       1.4080      2.00000
     78       1.4911      2.00000
     79       1.6587      2.00000
     80       1.7120      2.00000
     81       1.7827      2.00000
     82       1.9507      2.00000
     83       2.0610      2.00000
     84       2.1603      2.00000
     85       2.2337      2.00000
     86       2.3133      2.00000
     87       2.4738      2.00000
     88       2.5745      2.00000
     89       2.6543      2.00000
     90       2.7522      2.00000
     91       2.9246      2.00000
     92       3.0192      2.00000
     93       3.0962      2.00000
     94       3.1901      2.00000
     95       3.3272      2.00000
     96       3.4093      2.00000
     97       3.5019      2.00000
     98       3.5689      2.00000
     99       3.6472      2.00000
    100       3.6974      2.00000
    101       3.7779      2.00000
    102       3.8868      2.00000
    103       3.9878      2.00000
    104       4.0458      2.00000
    105       4.1897      2.00000
    106       4.2606      2.00000
    107       4.3178      2.00000
    108       4.4903      2.00000
    109       4.5450      2.00000
    110       4.6827      2.00000
    111       4.7980      2.00000
    112       4.8882      2.00000
    113       5.0588      2.00000
    114       5.1601      2.00000
    115       5.2815      2.00000
    116       5.3772      2.00000
    117       5.4954      2.00000
    118       5.7167      2.00000
    119       5.7795      2.00000
    120       5.8690      2.00000
    121       6.0186      2.00000
    122       6.1609      2.00000
    123       6.2941      2.00000
    124       6.3795      2.00000
    125       6.4782      2.00000
    126       6.6907      2.00000
    127       6.8326      2.00000
    128       7.0089      2.00000
    129       7.1827      2.00000
    130       7.2851      2.00000
    131       7.3427      2.00000
    132       7.6313      2.00000
    133       7.7381      2.00000
    134       7.9362      2.00000
    135       8.2393      2.00000
    136       8.3308      2.00000
    137       8.4182      2.00000
    138       8.5730      2.00000
    139       8.8292      2.00000
    140       9.0718      2.00000
    141       9.1922      2.00000
    142       9.4595      2.00000
    143       9.5867      2.00000
    144       9.7669      2.00000
    145       9.9470      2.00000
    146      10.1873      2.00000
    147      10.3095      2.00000
    148      10.5697      2.00000
    149      10.6516      2.00000
    150      10.9119      2.00000
    151      11.1132      2.00000
    152      11.2120      2.00000
    153      11.3446      2.00000
    154      11.6477      2.00000
    155      11.8070      2.00034
    156      11.8755      2.00188
    157      12.1843      2.05065
    158      12.3430      1.34488
    159      12.5384      0.03691
    160      12.6134     -0.06865
    161      12.7505     -0.02667
    162      12.9482     -0.00050
    163      13.1509      0.00000
    164      13.4486      0.00000
    165      13.6607      0.00000
    166      13.7361      0.00000
    167      13.9237      0.00000
    168      14.0240      0.00000
    169      14.1810      0.00000
    170      14.3823      0.00000
    171      14.5649      0.00000
    172      14.6901      0.00000
    173      14.8711      0.00000
    174      15.0595      0.00000
    175      15.1290      0.00000
    176      15.3200      0.00000
    177      15.6361      0.00000
    178      15.7123      0.00000
    179      15.9678      0.00000
    180      16.0892      0.00000
    181      16.1726      0.00000
    182      16.3824      0.00000
    183      16.5290      0.00000
    184      16.6670      0.00000
    185      16.7026      0.00000
    186      16.9404      0.00000
    187      17.1380      0.00000
    188      17.4055      0.00000
    189      17.5109      0.00000
    190      17.6783      0.00000
    191      17.7963      0.00000
    192      18.0899      0.00000
    193      18.2612      0.00000
    194      18.5125      0.00000
    195      18.6717      0.00000
    196      18.8443      0.00000
    197      19.1079      0.00000
    198      19.1787      0.00000
    199      19.3925      0.00000
    200      19.5669      0.00000
    201      19.8188      0.00000
    202      20.1233      0.00000
    203      20.4029      0.00000
    204      20.6003      0.00000
    205      20.6758      0.00000
    206      20.8863      0.00000
    207      21.2067      0.00000
    208      21.3163      0.00000
    209      21.7692      0.00000
    210      22.3671      0.00000
    211      22.5756      0.00000
    212      22.8255      0.00000

 k-point   4 :      -0.3333    0.3333    0.0000
  band No.  band energies     occupation 
      1     -12.4365      2.00000
      2     -11.7850      2.00000
      3      -9.7950      2.00000
      4      -9.4194      2.00000
      5      -9.3185      2.00000
      6      -9.1285      2.00000
      7      -8.9871      2.00000
      8      -8.9200      2.00000
      9      -8.7147      2.00000
     10      -8.5731      2.00000
     11      -8.4408      2.00000
     12      -8.1817      2.00000
     13      -6.8638      2.00000
     14      -6.7794      2.00000
     15      -6.5992      2.00000
     16      -6.4830      2.00000
     17      -6.3393      2.00000
     18      -6.0337      2.00000
     19      -5.6326      2.00000
     20      -5.5232      2.00000
     21      -5.4261      2.00000
     22      -5.3830      2.00000
     23      -5.2050      2.00000
     24      -5.1095      2.00000
     25      -5.0197      2.00000
     26      -4.9142      2.00000
     27      -4.7889      2.00000
     28      -4.7555      2.00000
     29      -4.6239      2.00000
     30      -4.4742      2.00000
     31      -4.2973      2.00000
     32      -4.1909      2.00000
     33      -3.9989      2.00000
     34      -3.9322      2.00000
     35      -3.7365      2.00000
     36      -3.5252      2.00000
     37      -3.3691      2.00000
     38      -3.1987      2.00000
     39      -3.0452      2.00000
     40      -2.9970      2.00000
     41      -2.8330      2.00000
     42      -2.3202      2.00000
     43      -2.2027      2.00000
     44      -2.1077      2.00000
     45      -1.9853      2.00000
     46      -1.9039      2.00000
     47      -1.7706      2.00000
     48      -1.6597      2.00000
     49      -1.4633      2.00000
     50      -1.3873      2.00000
     51      -1.3141      2.00000
     52      -1.1730      2.00000
     53      -1.1036      2.00000
     54      -1.0002      2.00000
     55      -0.8917      2.00000
     56      -0.7476      2.00000
     57      -0.6797      2.00000
     58      -0.5899      2.00000
     59      -0.5490      2.00000
     60      -0.3945      2.00000
     61      -0.2646      2.00000
     62      -0.2248      2.00000
     63      -0.0727      2.00000
     64       0.0209      2.00000
     65       0.1578      2.00000
     66       0.2506      2.00000
     67       0.3252      2.00000
     68       0.4356      2.00000
     69       0.5551      2.00000
     70       0.5943      2.00000
     71       0.6871      2.00000
     72       0.8288      2.00000
     73       0.9359      2.00000
     74       1.0923      2.00000
     75       1.1716      2.00000
     76       1.3247      2.00000
     77       1.3556      2.00000
     78       1.4674      2.00000
     79       1.5836      2.00000
     80       1.7420      2.00000
     81       1.8100      2.00000
     82       1.9102      2.00000
     83       2.1309      2.00000
     84       2.2347      2.00000
     85       2.2859      2.00000
     86       2.4154      2.00000
     87       2.4421      2.00000
     88       2.5352      2.00000
     89       2.6451      2.00000
     90       2.7846      2.00000
     91       2.9042      2.00000
     92       3.0000      2.00000
     93       3.1462      2.00000
     94       3.2480      2.00000
     95       3.3093      2.00000
     96       3.4265      2.00000
     97       3.5034      2.00000
     98       3.5554      2.00000
     99       3.8023      2.00000
    100       3.8656      2.00000
    101       3.9801      2.00000
    102       4.0776      2.00000
    103       4.2573      2.00000
    104       4.3207      2.00000
    105       4.4137      2.00000
    106       4.4933      2.00000
    107       4.6102      2.00000
    108       4.6934      2.00000
    109       4.7684      2.00000
    110       4.8417      2.00000
    111       5.0040      2.00000
    112       5.0649      2.00000
    113       5.1461      2.00000
    114       5.2434      2.00000
    115       5.3238      2.00000
    116       5.4880      2.00000
    117       5.6182      2.00000
    118       5.6801      2.00000
    119       5.8454      2.00000
    120       5.9409      2.00000
    121       6.0322      2.00000
    122       6.2949      2.00000
    123       6.4498      2.00000
    124       6.6871      2.00000
    125       6.8446      2.00000
    126       6.9840      2.00000
    127       7.0480      2.00000
    128       7.0797      2.00000
    129       7.2799      2.00000
    130       7.4410      2.00000
    131       7.6304      2.00000
    132       7.7626      2.00000
    133       7.9741      2.00000
    134       8.2693      2.00000
    135       8.4404      2.00000
    136       8.5339      2.00000
    137       8.7152      2.00000
    138       8.9424      2.00000
    139       9.0945      2.00000
    140       9.2927      2.00000
    141       9.3959      2.00000
    142       9.5300      2.00000
    143       9.7552      2.00000
    144      10.0048      2.00000
    145      10.1639      2.00000
    146      10.2985      2.00000
    147      10.4576      2.00000
    148      10.5696      2.00000
    149      10.8599      2.00000
    150      11.0506      2.00000
    151      11.2166      2.00000
    152      11.2918      2.00000
    153      11.6390      2.00000
    154      11.7111      2.00002
    155      11.9302      2.00602
    156      12.0340      2.03255
    157      12.1553      2.06886
    158      12.4209      0.69938
    159      12.4970      0.19604
    160      12.6577     -0.06595
    161      12.8814     -0.00249
    162      13.1728      0.00000
    163      13.3442      0.00000
    164      13.5599      0.00000
    165      13.7083      0.00000
    166      13.8054      0.00000
    167      14.0866      0.00000
    168      14.2854      0.00000
    169      14.3169      0.00000
    170      14.4998      0.00000
    171      14.5942      0.00000
    172      14.7435      0.00000
    173      14.9279      0.00000
    174      15.0799      0.00000
    175      15.3643      0.00000
    176      15.4170      0.00000
    177      15.5680      0.00000
    178      15.7399      0.00000
    179      15.8060      0.00000
    180      15.9631      0.00000
    181      16.2092      0.00000
    182      16.2966      0.00000
    183      16.5264      0.00000
    184      16.7294      0.00000
    185      16.8776      0.00000
    186      17.1072      0.00000
    187      17.2335      0.00000
    188      17.4796      0.00000
    189      17.5972      0.00000
    190      17.7278      0.00000
    191      17.8928      0.00000
    192      18.1854      0.00000
    193      18.2991      0.00000
    194      18.5472      0.00000
    195      18.7076      0.00000
    196      18.8829      0.00000
    197      19.1379      0.00000
    198      19.3490      0.00000
    199      19.5356      0.00000
    200      19.7759      0.00000
    201      19.8652      0.00000
    202      20.0977      0.00000
    203      20.4016      0.00000
    204      20.5411      0.00000
    205      20.7955      0.00000
    206      21.0133      0.00000
    207      21.0752      0.00000
    208      21.3555      0.00000
    209      21.7534      0.00000
    210      22.0120      0.00000
    211      22.4443      0.00000
    212      22.9864      0.00000

 k-point   5 :       0.3333    0.3333    0.3333
  band No.  band energies     occupation 
      1     -12.3817      2.00000
      2     -12.0397      2.00000
      3      -9.6374      2.00000
      4      -9.5408      2.00000
      5      -9.4021      2.00000
      6      -9.3117      2.00000
      7      -9.1662      2.00000
      8      -9.0466      2.00000
      9      -8.8908      2.00000
     10      -8.7624      2.00000
     11      -8.4188      2.00000
     12      -7.9762      2.00000
     13      -6.8869      2.00000
     14      -6.7668      2.00000
     15      -6.3893      2.00000
     16      -6.2448      2.00000
     17      -6.1341      2.00000
     18      -6.0707      2.00000
     19      -5.7659      2.00000
     20      -5.5480      2.00000
     21      -5.4827      2.00000
     22      -5.3035      2.00000
     23      -5.2053      2.00000
     24      -5.1008      2.00000
     25      -5.0161      2.00000
     26      -4.8833      2.00000
     27      -4.7548      2.00000
     28      -4.5893      2.00000
     29      -4.5228      2.00000
     30      -4.4705      2.00000
     31      -4.3541      2.00000
     32      -4.1377      2.00000
     33      -3.9830      2.00000
     34      -3.9330      2.00000
     35      -3.8616      2.00000
     36      -3.6982      2.00000
     37      -3.4396      2.00000
     38      -3.3206      2.00000
     39      -2.9895      2.00000
     40      -2.7706      2.00000
     41      -2.4501      2.00000
     42      -2.2815      2.00000
     43      -2.2316      2.00000
     44      -2.0851      2.00000
     45      -1.8985      2.00000
     46      -1.8325      2.00000
     47      -1.7355      2.00000
     48      -1.6127      2.00000
     49      -1.5518      2.00000
     50      -1.3592      2.00000
     51      -1.2941      2.00000
     52      -1.2388      2.00000
     53      -1.0886      2.00000
     54      -0.9724      2.00000
     55      -0.8522      2.00000
     56      -0.7650      2.00000
     57      -0.5314      2.00000
     58      -0.4586      2.00000
     59      -0.3630      2.00000
     60      -0.2426      2.00000
     61      -0.1355      2.00000
     62       0.0599      2.00000
     63       0.1588      2.00000
     64       0.2172      2.00000
     65       0.3431      2.00000
     66       0.4353      2.00000
     67       0.5018      2.00000
     68       0.5780      2.00000
     69       0.6648      2.00000
     70       0.7054      2.00000
     71       0.7981      2.00000
     72       0.9658      2.00000
     73       1.0252      2.00000
     74       1.1574      2.00000
     75       1.2660      2.00000
     76       1.3829      2.00000
     77       1.4487      2.00000
     78       1.5363      2.00000
     79       1.6183      2.00000
     80       1.6685      2.00000
     81       1.7860      2.00000
     82       1.9010      2.00000
     83       2.0082      2.00000
     84       2.1474      2.00000
     85       2.2521      2.00000
     86       2.3368      2.00000
     87       2.3974      2.00000
     88       2.4812      2.00000
     89       2.5600      2.00000
     90       2.7420      2.00000
     91       2.8619      2.00000
     92       2.9076      2.00000
     93       2.9708      2.00000
     94       3.1333      2.00000
     95       3.2270      2.00000
     96       3.3771      2.00000
     97       3.4031      2.00000
     98       3.4652      2.00000
     99       3.5961      2.00000
    100       3.6709      2.00000
    101       3.7146      2.00000
    102       3.8615      2.00000
    103       3.9958      2.00000
    104       4.1230      2.00000
    105       4.2990      2.00000
    106       4.3654      2.00000
    107       4.4951      2.00000
    108       4.6192      2.00000
    109       4.6559      2.00000
    110       4.7087      2.00000
    111       4.8381      2.00000
    112       4.9800      2.00000
    113       5.0013      2.00000
    114       5.1822      2.00000
    115       5.2657      2.00000
    116       5.4078      2.00000
    117       5.5754      2.00000
    118       5.6622      2.00000
    119       5.7531      2.00000
    120       5.9287      2.00000
    121       6.0115      2.00000
    122       6.1193      2.00000
    123       6.1866      2.00000
    124       6.4068      2.00000
    125       6.5035      2.00000
    126       6.6478      2.00000
    127       6.8243      2.00000
    128       7.1357      2.00000
    129       7.2543      2.00000
    130       7.3608      2.00000
    131       7.4962      2.00000
    132       7.7164      2.00000
    133       7.9139      2.00000
    134       8.0285      2.00000
    135       8.1470      2.00000
    136       8.2981      2.00000
    137       8.3722      2.00000
    138       8.5422      2.00000
    139       8.7349      2.00000
    140       9.0567      2.00000
    141       9.2547      2.00000
    142       9.4918      2.00000
    143       9.5858      2.00000
    144       9.8385      2.00000
    145      10.0569      2.00000
    146      10.2228      2.00000
    147      10.4215      2.00000
    148      10.6831      2.00000
    149      10.8175      2.00000
    150      10.9829      2.00000
    151      11.2707      2.00000
    152      11.3380      2.00000
    153      11.5664      2.00000
    154      11.8702      2.00166
    155      12.0255      2.02917
    156      12.0549      2.04166
    157      12.3462      1.31959
    158      12.5617     -0.01745
    159      12.6703     -0.06141
    160      12.9820     -0.00020
    161      13.0904     -0.00001
    162      13.2192      0.00000
    163      13.3934      0.00000
    164      13.5219      0.00000
    165      13.7005      0.00000
    166      14.0325      0.00000
    167      14.1565      0.00000
    168      14.3332      0.00000
    169      14.3751      0.00000
    170      14.4834      0.00000
    171      14.6358      0.00000
    172      14.7841      0.00000
    173      14.9489      0.00000
    174      15.1175      0.00000
    175      15.2012      0.00000
    176      15.3328      0.00000
    177      15.4863      0.00000
    178      15.6576      0.00000
    179      15.7972      0.00000
    180      16.0058      0.00000
    181      16.1042      0.00000
    182      16.2490      0.00000
    183      16.4549      0.00000
    184      16.6327      0.00000
    185      16.6941      0.00000
    186      16.8697      0.00000
    187      17.0330      0.00000
    188      17.1085      0.00000
    189      17.4437      0.00000
    190      17.5588      0.00000
    191      17.7169      0.00000
    192      18.0176      0.00000
    193      18.0862      0.00000
    194      18.3844      0.00000
    195      18.5987      0.00000
    196      18.7351      0.00000
    197      19.0481      0.00000
    198      19.2257      0.00000
    199      19.5428      0.00000
    200      19.6272      0.00000
    201      19.7915      0.00000
    202      20.0326      0.00000
    203      20.1666      0.00000
    204      20.4397      0.00000
    205      20.8341      0.00000
    206      21.0125      0.00000
    207      21.1238      0.00000
    208      21.3542      0.00000
    209      21.7383      0.00000
    210      21.9812      0.00000
    211      22.5636      0.00000
    212      22.7038      0.00000

 k-point   6 :      -0.3333    0.3333    0.3333
  band No.  band energies     occupation 
      1     -12.4631      2.00000
      2     -12.0265      2.00000
      3      -9.6125      2.00000
      4      -9.5784      2.00000
      5      -9.5044      2.00000
      6      -9.3170      2.00000
      7      -9.1168      2.00000
      8      -8.9607      2.00000
      9      -8.8416      2.00000
     10      -8.7222      2.00000
     11      -8.4465      2.00000
     12      -8.2266      2.00000
     13      -7.2066      2.00000
     14      -6.7221      2.00000
     15      -6.5006      2.00000
     16      -6.2889      2.00000
     17      -6.1286      2.00000
     18      -5.9236      2.00000
     19      -5.8003      2.00000
     20      -5.6613      2.00000
     21      -5.5621      2.00000
     22      -5.4071      2.00000
     23      -5.3012      2.00000
     24      -5.1203      2.00000
     25      -4.9932      2.00000
     26      -4.9036      2.00000
     27      -4.7951      2.00000
     28      -4.6924      2.00000
     29      -4.6142      2.00000
     30      -4.4842      2.00000
     31      -4.3751      2.00000
     32      -4.2226      2.00000
     33      -4.0737      2.00000
     34      -3.8290      2.00000
     35      -3.7540      2.00000
     36      -3.6646      2.00000
     37      -3.5294      2.00000
     38      -3.0638      2.00000
     39      -3.0082      2.00000
     40      -2.8773      2.00000
     41      -2.6446      2.00000
     42      -2.4861      2.00000
     43      -2.3630      2.00000
     44      -2.1529      2.00000
     45      -1.9478      2.00000
     46      -1.8188      2.00000
     47      -1.6820      2.00000
     48      -1.5626      2.00000
     49      -1.5198      2.00000
     50      -1.3211      2.00000
     51      -1.2635      2.00000
     52      -1.1567      2.00000
     53      -1.0513      2.00000
     54      -0.8854      2.00000
     55      -0.7927      2.00000
     56      -0.6886      2.00000
     57      -0.5859      2.00000
     58      -0.4797      2.00000
     59      -0.4447      2.00000
     60      -0.3306      2.00000
     61      -0.2403      2.00000
     62      -0.1952      2.00000
     63      -0.0670      2.00000
     64      -0.0295      2.00000
     65       0.1352      2.00000
     66       0.3239      2.00000
     67       0.4075      2.00000
     68       0.4791      2.00000
     69       0.5753      2.00000
     70       0.6342      2.00000
     71       0.7112      2.00000
     72       0.8254      2.00000
     73       0.8839      2.00000
     74       1.0236      2.00000
     75       1.1371      2.00000
     76       1.2853      2.00000
     77       1.4203      2.00000
     78       1.5170      2.00000
     79       1.6298      2.00000
     80       1.7348      2.00000
     81       1.9139      2.00000
     82       1.9816      2.00000
     83       2.0976      2.00000
     84       2.1839      2.00000
     85       2.2974      2.00000
     86       2.3763      2.00000
     87       2.4215      2.00000
     88       2.5350      2.00000
     89       2.6668      2.00000
     90       2.7562      2.00000
     91       2.7991      2.00000
     92       2.8963      2.00000
     93       2.9988      2.00000
     94       3.0708      2.00000
     95       3.2461      2.00000
     96       3.2987      2.00000
     97       3.4472      2.00000
     98       3.5744      2.00000
     99       3.6617      2.00000
    100       3.7339      2.00000
    101       3.8246      2.00000
    102       4.0257      2.00000
    103       4.1132      2.00000
    104       4.2008      2.00000
    105       4.2681      2.00000
    106       4.3767      2.00000
    107       4.5288      2.00000
    108       4.6130      2.00000
    109       4.7429      2.00000
    110       4.7808      2.00000
    111       4.9151      2.00000
    112       4.9813      2.00000
    113       5.1240      2.00000
    114       5.3366      2.00000
    115       5.3929      2.00000
    116       5.6168      2.00000
    117       5.7682      2.00000
    118       5.9080      2.00000
    119       5.9479      2.00000
    120       6.1069      2.00000
    121       6.2664      2.00000
    122       6.4263      2.00000
    123       6.5963      2.00000
    124       6.7378      2.00000
    125       6.8487      2.00000
    126       6.9351      2.00000
    127       7.0336      2.00000
    128       7.2668      2.00000
    129       7.5436      2.00000
    130       7.6582      2.00000
    131       7.7280      2.00000
    132       7.9040      2.00000
    133       7.9849      2.00000
    134       8.3709      2.00000
    135       8.4960      2.00000
    136       8.6075      2.00000
    137       8.7211      2.00000
    138       8.9190      2.00000
    139       9.0439      2.00000
    140       9.1504      2.00000
    141       9.3976      2.00000
    142       9.5728      2.00000
    143       9.6482      2.00000
    144       9.9707      2.00000
    145      10.0902      2.00000
    146      10.2511      2.00000
    147      10.3798      2.00000
    148      10.5746      2.00000
    149      10.8110      2.00000
    150      10.9989      2.00000
    151      11.1167      2.00000
    152      11.3818      2.00000
    153      11.5552      2.00000
    154      11.8132      2.00041
    155      11.9551      2.00962
    156      12.1499      2.07006
    157      12.3129      1.56625
    158      12.4797      0.28767
    159      12.7964     -0.01318
    160      12.8184     -0.00893
    161      12.9627     -0.00034
    162      13.1833      0.00000
    163      13.3097      0.00000
    164      13.4392      0.00000
    165      13.5450      0.00000
    166      13.7492      0.00000
    167      13.9432      0.00000
    168      14.1361      0.00000
    169      14.2356      0.00000
    170      14.3194      0.00000
    171      14.4540      0.00000
    172      14.5911      0.00000
    173      14.7750      0.00000
    174      14.9525      0.00000
    175      15.1652      0.00000
    176      15.3952      0.00000
    177      15.4931      0.00000
    178      15.7127      0.00000
    179      15.8192      0.00000
    180      15.8845      0.00000
    181      16.0175      0.00000
    182      16.1650      0.00000
    183      16.4479      0.00000
    184      16.5332      0.00000
    185      16.7780      0.00000
    186      16.9121      0.00000
    187      16.9905      0.00000
    188      17.2618      0.00000
    189      17.4679      0.00000
    190      17.5201      0.00000
    191      17.7521      0.00000
    192      17.8756      0.00000
    193      18.1803      0.00000
    194      18.3343      0.00000
    195      18.4354      0.00000
    196      18.5633      0.00000
    197      18.7460      0.00000
[...]
   0.794E-12 -.288E+02 0.135E+02   -.216E-14 0.306E+02 -.151E+02   0.643E-20 -.181E+01 0.163E+01   0.112E-12 0.190E-03 0.699E-04
   -.249E+02 0.144E+02 0.135E+02   0.265E+02 -.153E+02 -.151E+02   -.157E+01 0.907E+00 0.163E+01   0.165E-03 -.952E-04 0.699E-04
   -.384E+02 0.222E+02 -.118E+02   0.420E+02 -.243E+02 0.127E+02   -.356E+01 0.206E+01 -.844E+00   0.612E-03 -.353E-03 0.252E-03
   -.204E-12 -.444E+02 -.118E+02   0.356E-14 0.485E+02 0.127E+02   0.139E-16 -.411E+01 -.844E+00   -.198E-13 0.706E-03 0.252E-03
   0.384E+02 0.222E+02 -.118E+02   -.420E+02 -.243E+02 0.127E+02   0.356E+01 0.206E+01 -.844E+00   -.612E-03 -.353E-03 0.252E-03
   -.384E+02 -.222E+02 0.118E+02   0.420E+02 0.243E+02 -.127E+02   -.356E+01 -.206E+01 0.844E+00   0.612E-03 0.353E-03 -.252E-03
   0.426E-12 0.444E+02 0.118E+02   -.117E-14 -.485E+02 -.127E+02   -.931E-20 0.411E+01 0.844E+00   0.358E-13 -.706E-03 -.252E-03
   0.384E+02 -.222E+02 0.118E+02   -.420E+02 0.243E+02 -.127E+02   0.356E+01 -.206E+01 0.844E+00   -.612E-03 0.353E-03 -.252E-03
   0.293E+02 -.169E+02 -.629E+02   -.307E+02 0.177E+02 0.651E+02   0.145E+01 -.835E+00 -.224E+01   0.694E-04 -.401E-04 0.687E-03
   -.510E-13 0.338E+02 -.629E+02   0.107E-13 -.354E+02 0.651E+02   -.700E-20 0.167E+01 -.224E+01   0.729E-13 0.802E-04 0.687E-03
   -.293E+02 -.169E+02 -.629E+02   0.307E+02 0.177E+02 0.651E+02   -.145E+01 -.835E+00 -.224E+01   -.694E-04 -.401E-04 0.687E-03
   0.293E+02 0.169E+02 0.629E+02   -.307E+02 -.177E+02 -.651E+02   0.145E+01 0.835E+00 0.224E+01   0.694E-04 0.401E-04 -.687E-03
   0.130E-12 -.338E+02 0.629E+02   -.121E-14 0.354E+02 -.651E+02   0.700E-20 -.167E+01 0.224E+01   0.242E-13 -.802E-04 -.687E-03
   -.293E+02 0.169E+02 0.629E+02   0.307E+02 -.177E+02 -.651E+02   -.145E+01 0.835E+00 0.224E+01   -.694E-04 0.401E-04 -.687E-03
   -.603E+02 0.331E+00 -.209E+02   0.634E+02 -.358E+00 0.212E+02   -.306E+01 0.217E-01 -.391E+00   0.453E-03 -.370E-03 -.151E-03
   0.299E+02 -.524E+02 -.209E+02   -.314E+02 0.551E+02 0.212E+02   0.151E+01 -.266E+01 -.391E+00   0.939E-04 0.577E-03 -.151E-03
   0.304E+02 0.521E+02 -.209E+02   -.320E+02 -.547E+02 0.212E+02   0.155E+01 0.264E+01 -.391E+00   -.547E-03 -.207E-03 -.151E-03
   -.603E+02 -.331E+00 0.209E+02   0.634E+02 0.358E+00 -.212E+02   -.306E+01 -.217E-01 0.391E+00   0.453E-03 0.370E-03 0.151E-03
   0.299E+02 0.524E+02 0.209E+02   -.314E+02 -.551E+02 -.212E+02   0.151E+01 0.266E+01 0.391E+00   0.939E-04 -.577E-03 0.151E-03
   0.304E+02 -.521E+02 0.209E+02   -.320E+02 0.547E+02 -.212E+02   0.155E+01 -.264E+01 0.391E+00   -.547E-03 0.207E-03 0.151E-03
   0.603E+02 -.331E+00 0.209E+02   -.634E+02 0.358E+00 -.212E+02   0.306E+01 -.217E-01 0.391E+00   -.453E-03 0.370E-03 0.151E-03
   -.299E+02 0.524E+02 0.209E+02   0.314E+02 -.551E+02 -.212E+02   -.151E+01 0.266E+01 0.391E+00   -.939E-04 -.577E-03 0.151E-03
   -.304E+02 -.521E+02 0.209E+02   0.320E+02 0.547E+02 -.212E+02   -.155E+01 -.264E+01 0.391E+00   0.547E-03 0.207E-03 0.151E-03
   0.603E+02 0.331E+00 -.209E+02   -.634E+02 -.358E+00 0.212E+02   0.306E+01 0.217E-01 -.391E+00   -.453E-03 -.370E-03 -.151E-03
   -.299E+02 -.524E+02 -.209E+02   0.314E+02 0.551E+02 0.212E+02   -.151E+01 -.266E+01 -.391E+00   -.939E-04 0.577E-03 -.151E-03
   -.304E+02 0.521E+02 -.209E+02   0.320E+02 -.547E+02 0.212E+02   -.155E+01 0.264E+01 -.391E+00   0.547E-03 -.207E-03 -.151E-03
   -.255E+02 -.294E+02 -.506E+01   0.267E+02 0.322E+02 0.690E+01   -.115E+01 -.273E+01 -.183E+01   -.211E-03 -.176E-03 0.525E-04
   0.382E+02 -.740E+01 -.506E+01   -.412E+02 0.704E+01 0.690E+01   0.294E+01 0.370E+00 -.183E+01   0.258E-03 -.948E-04 0.525E-04
   -.127E+02 0.368E+02 -.506E+01   0.145E+02 -.392E+02 0.690E+01   -.179E+01 0.236E+01 -.183E+01   -.471E-04 0.271E-03 0.525E-04
   -.255E+02 0.294E+02 0.506E+01   0.267E+02 -.322E+02 -.690E+01   -.115E+01 0.273E+01 0.183E+01   -.211E-03 0.176E-03 -.525E-04
   0.382E+02 0.740E+01 0.506E+01   -.412E+02 -.704E+01 -.690E+01   0.294E+01 -.370E+00 0.183E+01   0.258E-03 0.948E-04 -.525E-04
   -.127E+02 -.368E+02 0.506E+01   0.145E+02 0.392E+02 -.690E+01   -.179E+01 -.236E+01 0.183E+01   -.471E-04 -.271E-03 -.525E-04
   0.255E+02 0.294E+02 0.506E+01   -.267E+02 -.322E+02 -.690E+01   0.115E+01 0.273E+01 0.183E+01   0.211E-03 0.176E-03 -.525E-04
   -.382E+02 0.740E+01 0.506E+01   0.412E+02 -.704E+01 -.690E+01   -.294E+01 -.370E+00 0.183E+01   -.258E-03 0.948E-04 -.525E-04
   0.127E+02 -.368E+02 0.506E+01   -.145E+02 0.392E+02 -.690E+01   0.179E+01 -.236E+01 0.183E+01   0.471E-04 -.271E-03 -.525E-04
   0.255E+02 -.294E+02 -.506E+01   -.267E+02 0.322E+02 0.690E+01   0.115E+01 -.273E+01 -.183E+01   0.211E-03 -.176E-03 0.525E-04
   -.382E+02 -.740E+01 -.506E+01   0.412E+02 0.704E+01 0.690E+01   -.294E+01 0.370E+00 -.183E+01   -.258E-03 -.948E-04 0.525E-04
   0.127E+02 0.368E+02 -.506E+01   -.145E+02 -.392E+02 0.690E+01   0.179E+01 0.236E+01 -.183E+01   0.471E-04 0.271E-03 0.525E-04
   0.140E+02 -.452E+02 -.494E+02   -.162E+02 0.506E+02 0.529E+02   0.222E+01 -.536E+01 -.358E+01   0.451E-04 0.413E-03 0.187E-03
   0.322E+02 0.347E+02 -.494E+02   -.357E+02 -.393E+02 0.529E+02   0.353E+01 0.460E+01 -.358E+01   -.380E-03 -.167E-03 0.187E-03
   -.462E+02 0.105E+02 -.494E+02   0.519E+02 -.113E+02 0.529E+02   -.575E+01 0.759E+00 -.358E+01   0.335E-03 -.246E-03 0.187E-03
   0.140E+02 0.452E+02 0.494E+02   -.162E+02 -.506E+02 -.529E+02   0.222E+01 0.536E+01 0.358E+01   0.451E-04 -.413E-03 -.187E-03
   0.322E+02 -.347E+02 0.494E+02   -.357E+02 0.393E+02 -.529E+02   0.353E+01 -.460E+01 0.358E+01   -.380E-03 0.167E-03 -.187E-03
   -.462E+02 -.105E+02 0.494E+02   0.519E+02 0.113E+02 -.529E+02   -.575E+01 -.759E+00 0.358E+01   0.335E-03 0.246E-03 -.187E-03
   -.140E+02 0.452E+02 0.494E+02   0.162E+02 -.506E+02 -.529E+02   -.222E+01 0.536E+01 0.358E+01   -.451E-04 -.413E-03 -.187E-03
   -.322E+02 -.347E+02 0.494E+02   0.357E+02 0.393E+02 -.529E+02   -.353E+01 -.460E+01 0.358E+01   0.380E-03 0.167E-03 -.187E-03
   0.462E+02 -.105E+02 0.494E+02   -.519E+02 0.113E+02 -.529E+02   0.575E+01 -.759E+00 0.358E+01   -.335E-03 0.246E-03 -.187E-03
   -.140E+02 -.452E+02 -.494E+02   0.162E+02 0.506E+02 0.529E+02   -.222E+01 -.536E+01 -.358E+01   -.451E-04 0.413E-03 0.187E-03
   -.322E+02 0.347E+02 -.494E+02   0.357E+02 -.393E+02 0.529E+02   -.353E+01 0.460E+01 -.358E+01   0.380E-03 -.167E-03 0.187E-03
   0.462E+02 0.105E+02 -.494E+02   -.519E+02 -.113E+02 0.529E+02   0.575E+01 0.759E+00 -.358E+01   -.335E-03 -.246E-03 0.187E-03
   -.118E+01 -.456E+02 0.153E+02   -.115E+01 0.507E+02 -.175E+02   0.234E+01 -.508E+01 0.213E+01   0.121E-03 0.565E-03 -.311E-03
   0.401E+02 0.218E+02 0.153E+02   -.433E+02 -.263E+02 -.175E+02   0.323E+01 0.457E+01 0.213E+01   -.550E-03 -.178E-03 -.311E-03
   -.389E+02 0.238E+02 0.153E+02   0.444E+02 -.243E+02 -.175E+02   -.557E+01 0.512E+00 0.213E+01   0.429E-03 -.387E-03 -.311E-03
   -.118E+01 0.456E+02 -.153E+02   -.115E+01 -.507E+02 0.175E+02   0.234E+01 0.508E+01 -.213E+01   0.121E-03 -.565E-03 0.311E-03
   0.401E+02 -.218E+02 -.153E+02   -.433E+02 0.263E+02 0.175E+02   0.323E+01 -.457E+01 -.213E+01   -.550E-03 0.178E-03 0.311E-03
   -.389E+02 -.238E+02 -.153E+02   0.444E+02 0.243E+02 0.175E+02   -.557E+01 -.512E+00 -.213E+01   0.429E-03 0.387E-03 0.311E-03
   0.118E+01 0.456E+02 -.153E+02   0.115E+01 -.507E+02 0.175E+02   -.234E+01 0.508E+01 -.213E+01   -.121E-03 -.565E-03 0.311E-03
   -.401E+02 -.218E+02 -.153E+02   0.433E+02 0.263E+02 0.175E+02   -.323E+01 -.457E+01 -.213E+01   0.550E-03 0.178E-03 0.311E-03
   0.389E+02 -.238E+02 -.153E+02   -.444E+02 0.243E+02 0.175E+02   0.557E+01 -.512E+00 -.213E+01   -.429E-03 0.387E-03 0.311E-03
   0.118E+01 -.456E+02 0.153E+02   0.115E+01 0.507E+02 -.175E+02   -.234E+01 -.508E+01 0.213E+01   -.121E-03 0.565E-03 -.311E-03
   -.401E+02 0.218E+02 0.153E+02   0.433E+02 -.263E+02 -.175E+02   -.323E+01 0.457E+01 0.213E+01   0.550E-03 -.178E-03 -.311E-03
   0.389E+02 0.238E+02 0.153E+02   -.444E+02 -.243E+02 -.175E+02   0.557E+01 0.512E+00 0.213E+01   -.429E-03 -.387E-03 -.311E-03
 -----------------------------------------------------------------------------------------------
   0.321E-11 -.208E-12 0.121E-10   -.213E-13 0.373E-12 -.384E-12   0.178E-14 -.289E-14 -.888E-15   -.192E-12 -.928E-14 -.157E-11
 
 
 POSITION                                       TOTAL-FORCE (eV/Angst)
 -----------------------------------------------------------------------------------
      0.00000      0.00000     11.83226         0.000000      0.000000      0.000000
      0.00000      0.00000      9.11056         0.000000      0.000000     -0.005300
      0.00000      0.00000     14.55397         0.000000      0.000000      0.005300
      0.91545     -0.52853      7.70483        -0.009633      0.005562     -0.025198
      0.00000      1.05707      7.70483         0.000000     -0.011123     -0.025198
     -0.91545     -0.52853      7.70483         0.009633      0.005562     -0.025198
      0.91545      0.52853     15.95969        -0.009633     -0.005562      0.025198
      0.00000     -1.05707     15.95969         0.000000      0.011123      0.025198
     -0.91545      0.52853     15.95969         0.009633     -0.005562      0.025198
      1.46275     -0.84452      9.47236        -0.001890      0.001091     -0.017298
      0.00000      1.68904      9.47236         0.000000     -0.002182     -0.017298
     -1.46275     -0.84452      9.47236         0.001890      0.001091     -0.017298
      1.46275      0.84452     14.19217        -0.001890     -0.001091      0.017298
      0.00000     -1.68904     14.19217         0.000000      0.002182      0.017298
     -1.46275      0.84452     14.19217         0.001890     -0.001091      0.017298
     -1.00218      0.57861     10.55341         0.000675     -0.000389      0.005951
      0.00000     -1.15722     10.55341         0.000000      0.000779      0.005951
      1.00218      0.57861     10.55341        -0.000675     -0.000389      0.005951
     -1.00218     -0.57861     13.11112         0.000675      0.000389     -0.005951
      0.00000      1.15722     13.11112         0.000000     -0.000779     -0.005951
      1.00218     -0.57861     13.11112        -0.000675      0.000389     -0.005951
     -1.67554      0.96738      7.13822         0.055226     -0.031885      0.010228
      0.00000     -1.93475      7.13822         0.000000      0.063769      0.010228
      1.67554      0.96738      7.13822        -0.055226     -0.031885      0.010228
     -1.67554     -0.96738     16.52631         0.055226      0.031885     -0.010228
      0.00000      1.93475     16.52631         0.000000     -0.063769     -0.010228
      1.67554     -0.96738     16.52631        -0.055226      0.031885     -0.010228
     -2.65517      1.53296      8.56146        -0.014684      0.008478     -0.010927
      0.00000     -3.06592      8.56146         0.000000     -0.016956     -0.010927
      2.65517      1.53296      8.56146         0.014684      0.008478     -0.010927
     -2.65517     -1.53296     15.10307        -0.014684     -0.008478      0.010927
      0.00000      3.06592     15.10307         0.000000      0.016956      0.010927
      2.65517     -1.53296     15.10307         0.014684     -0.008478      0.010927
     -2.10912      1.21770      5.51689         0.006571     -0.003794     -0.075210
      0.00000     -2.43541      5.51689         0.000000      0.007588     -0.075210
      2.10912      1.21770      5.51689        -0.006571     -0.003794     -0.075210
     -2.10912     -1.21770     18.14764         0.006571      0.003794      0.075210
      0.00000      2.43541     18.14764         0.000000     -0.007588      0.075210
      2.10912     -1.21770     18.14764        -0.006571      0.003794      0.075210
      1.79814     -1.03816     20.93230         0.046783     -0.027010      0.009438
      0.00000      2.07631     20.93230         0.000000      0.054020      0.009438
     -1.79814     -1.03816     20.93230        -0.046783     -0.027010      0.009438
      1.79814      1.03816      2.73223         0.046783      0.027010     -0.009438
      0.00000     -2.07631      2.73223         0.000000     -0.054020     -0.009438
     -1.79814      1.03816      2.73223        -0.046783      0.027010     -0.009438
     -4.03736      2.33097      8.20681         0.036494     -0.021070      0.022865
      0.00000     -4.66195      8.20681         0.000000      0.042139      0.022865
      4.03736      2.33097      8.20681        -0.036494     -0.021070      0.022865
     -4.03736     -2.33097     15.45772         0.036494      0.021070     -0.022865
      0.00000      4.66195     15.45772         0.000000     -0.042139     -0.022865
      4.03736     -2.33097     15.45772        -0.036494      0.021070     -0.022865
     -0.87544      0.50544      1.33955         0.035275     -0.020366     -0.021236
      0.00000     -1.01087      1.33955         0.000000      0.040733     -0.021236
      0.87544      0.50544      1.33955        -0.035275     -0.020366     -0.021236
     -0.87544     -0.50544     22.32498         0.035275      0.020366      0.021236
      0.00000      1.01087     22.32498         0.000000     -0.040733      0.021236
      0.87544     -0.50544     22.32498        -0.035275      0.020366      0.021236
     -0.94088      1.62198      4.17489        -0.000834     -0.005258     -0.048298
     -0.93423     -1.62581      4.17489         0.004971      0.001907     -0.048298
      1.87511      0.00384      4.17489        -0.004137      0.003351     -0.048298
     -0.94088     -1.62198     19.48964        -0.000834      0.005258      0.048298
     -0.93423      1.62581     19.48964         0.004971     -0.001907      0.048298
      1.87511     -0.00384     19.48964        -0.004137     -0.003351      0.048298
      0.94088     -1.62198     19.48964         0.000834      0.005258      0.048298
      0.93423      1.62581     19.48964        -0.004971     -0.001907      0.048298
     -1.87511     -0.00384     19.48964         0.004137     -0.003351      0.048298
      0.94088      1.62198      4.17489         0.000834     -0.005258     -0.048298
      0.93423     -1.62581      4.17489        -0.004971      0.001907     -0.048298
     -1.87511      0.00384      4.17489         0.004137      0.003351     -0.048298
     -2.10151     -3.37475     12.71286         0.027985      0.022148      0.014023
      3.97337     -0.13259     12.71286        -0.033173      0.013162      0.014023
     -1.87186      3.50733     12.71286         0.005188     -0.035310      0.014023
     -2.10151      3.37475     10.95167         0.027985     -0.022148     -0.014023
      3.97337      0.13259     10.95167        -0.033173     -0.013162     -0.014023
     -1.87186     -3.50733     10.95167         0.005188      0.035310     -0.014023
      2.10151      3.37475     10.95167        -0.027985     -0.022148     -0.014023
     -3.97337      0.13259     10.95167         0.033173     -0.013162     -0.014023
      1.87186     -3.50733     10.95167        -0.005188      0.035310     -0.014023
      2.10151     -3.37475     12.71286        -0.027985      0.022148      0.014023
     -3.97337     -0.13259     12.71286         0.033173      0.013162      0.014023
      1.87186      3.50733     12.71286        -0.005188     -0.035310      0.014023
     -1.68225      2.07288      9.94536         0.016433     -0.004192     -0.022022
     -0.95404     -2.49331      9.94536        -0.004586      0.016327     -0.022022
      2.63629      0.42043      9.94536        -0.011847     -0.012135     -0.022022
     -1.68225     -2.07288     13.71917         0.016433      0.004192      0.022022
     -0.95404      2.49331     13.71917        -0.004586     -0.016327      0.022022
      2.63629     -0.42043     13.71917        -0.011847      0.012135      0.022022
      1.68225     -2.07288     13.71917        -0.016433      0.004192      0.022022
      0.95404      2.49331     13.71917         0.004586     -0.016327      0.022022
     -2.63629     -0.42043     13.71917         0.011847      0.012135      0.022022
      1.68225      2.07288      9.94536        -0.016433     -0.004192     -0.022022
      0.95404     -2.49331      9.94536         0.004586      0.016327     -0.022022
     -2.63629      0.42043      9.94536         0.011847     -0.012135     -0.022022
     -1.17870      2.36521      8.20862         0.006349     -0.013006     -0.037834
     -1.45898     -2.20339      8.20862         0.008089      0.012001     -0.037834
      2.63768     -0.16182      8.20862        -0.014438      0.001005     -0.037834
     -1.17870     -2.36521     15.45591         0.006349      0.013006      0.037834
     -1.45898      2.20339     15.45591         0.008089     -0.012001      0.037834
      2.63768      0.16182     15.45591        -0.014438     -0.001005      0.037834
      1.17870     -2.36521     15.45591        -0.006349      0.013006      0.037834
      1.45898      2.20339     15.45591        -0.008089     -0.012001      0.037834
     -2.63768      0.16182     15.45591         0.014438     -0.001005      0.037834
      1.17870      2.36521      8.20862        -0.006349     -0.013006     -0.037834
      1.45898     -2.20339      8.20862        -0.008089      0.012001     -0.037834
     -2.63768     -0.16182      8.20862         0.014438      0.001005     -0.037834
 -----------------------------------------------------------------------------------
    total drift:                                0.000000      0.000000      0.000000


--------------------------------------------------------------------------------------------------------



  FREE ENERGIE OF THE ION-ELECTRON SYSTEM (eV)
  ---------------------------------------------------
  free  energy   TOTEN  =      -700.458239 eV

  energy  without entropy=     -700.434862  energy(sigma->0) =     -700.450446
 
 d Force = 0.1074151E-01[ 0.566E-02, 0.158E-01]  d Energy = 0.1138343E-01-0.642E-03
 d Force = 0.1781507E+01[ 0.176E+01, 0.180E+01]  d Ewald  = 0.4567071E+01-0.279E+01


--------------------------------------------------------------------------------------------------------


    POTLOK:  cpu time    0.28: real time    0.28


--------------------------------------------------------------------------------------------------------


 Conjugate gradient step on ions:
 trial-energy change:   -0.011383  1 .order   -0.011355   -0.016912   -0.005799
  (g-gl).g = 0.128E-01      g.g   = 0.128E-01  gl.gl    = 0.290E-01
 g(Force)  = 0.116E-01   g(Stress)= 0.120E-02 ortho     =-0.657E-04
 gamma     =   0.44110
 trial     =   1.32094
 opt step  =   2.01013  (harmonic =   2.01013) maximal distance =0.00577347
 next E    =  -700.459723   (d E  =  -0.01287)


--------------------------------------------------------------------------------------------------------


     LOOP+:  cpu time  211.80: real time  212.60
    4ORBIT:  cpu time    0.00: real time    0.00

 total amount of memory used by VASP on root node   127929. kBytes
========================================================================

   base      :      30000. kBytes
   nonlr-proj:      15558. kBytes
   fftplans  :       8029. kBytes
   grid      :      15224. kBytes
   one-center:        322. kBytes
   wavefun   :      58796. kBytes
 
  
  
 General timing and accounting informations for this job:
 ========================================================
  
                  Total CPU time used (sec):     2826.880
                            User time (sec):     2821.700
                          System time (sec):        5.180
                         Elapsed time (sec):     2838.640
  
                   Maximum memory used (kb):      256144.
                   Average memory used (kb):           0.
  
                          Minor page faults:       542377
                          Major page faults:            0
                 Voluntary context switches:         1570
