 vasp.5.2.12 26May11 complex 
 executed on             LinuxIFC date 2012.05.25  11:41:16
 running on    4 nodes
 distr:  one band on    1 nodes,    4 groups


--------------------------------------------------------------------------------------------------------


 INCAR:
 POTCAR:    PAW_PBE B 06Sep2000                   
 POTCAR:    PAW_PBE B 06Sep2000                   
   VRHFIN =B: s2p1                                                              
   LEXCH  = PE                                                                  
   EATOM  =    71.1703 eV,    5.2309 Ry                                         
                                                                                
   TITEL  = PAW_PBE B 06Sep2000                                                 
   LULTRA =        F    use ultrasoft PP ?                                      
   IUNSCR =        1    unscreen: 0-lin 1-nonlin 2-no                           
   RPACOR =    1.200    partial core radius                                     
   POMASS =   10.811; ZVAL   =    3.000    mass and valenz                      
   RCORE  =    1.700    outmost cutoff radius                                   
   RWIGS  =    1.710; RWIGS  =    0.905    wigner-seitz radius (au A)           
   ENMAX  =  318.614; ENMIN  =  238.960 eV                                      
   ICORE  =        2    local potential                                         
   LCOR   =        T    correct aug charges                                     
   LPAW   =        T    paw PP                                                  
   EAUG   =  535.514                                                            
   DEXC   =    0.000                                                            
   RMAX   =    1.732    core radius for proj-oper                               
   RAUG   =    1.300    factor for augmentation sphere                          
   RDEP   =    1.757    radius for radial grids                                 
   RDEPT  =    1.436    core radius for aug-charge                              
                                                                                
   Atomic configuration                                                         
    4 entries                                                                   
     n  l   j            E        occ.                                          
     1  0  0.50      -180.5896   2.0000                                         
     2  0  0.50        -9.4431   2.0000                                         
     2  1  0.50        -3.6068   1.0000                                         
     3  2  1.50        -4.0817   0.0000                                         
   Description                                                                  
     l       E           TYP  RCUT    TYP  RCUT                                 
     0     -9.4430752     23  1.500                                             
     0      0.8675899     23  1.500                                             
     1     -3.6067955     23  1.700                                             
     1      6.1086146     23  1.700                                             
     2     -4.0817478      7  1.700                                             
  local pseudopotential read in
  partial core-charges read in
  partial kinetic energy density read in
  atomic valenz-charges read in
  non local Contribution for L=           0  read in
    real space projection operators read in
  non local Contribution for L=           0  read in
    real space projection operators read in
  non local Contribution for L=           1  read in
    real space projection operators read in
  non local Contribution for L=           1  read in
    real space projection operators read in
    PAW grid and wavefunctions read in
 
   number of l-projection  operators is LMAX  =           4
   number of lm-projection operators is LMMAX =           8
 
 Optimization of the real space projectors (new method)

 maximal supplied QI-value         = 22.11
 optimisation between [QCUT,QGAM] = [  9.07, 18.13] = [ 23.01, 92.04] Ry 
 Optimized for a Real-space Cutoff    1.46 Angstroem

   l    n(q)    QCUT    max X(q) W(low)/X(q) W(high)/X(q)  e(spline) 
   0      8     9.065    53.033    0.38E-03    0.70E-03    0.20E-06
   0      8     9.065    34.740    0.38E-03    0.69E-03    0.20E-06
   1      7     9.065    30.949    0.34E-03    0.21E-03    0.23E-06
   1      7     9.065    19.518    0.31E-03    0.17E-03    0.22E-06
  PAW_PBE B 06Sep2000                   :
 energy of atom  1       EATOM=  -71.1703
 kinetic energy error for atom=    0.0071 (will be added to EATOM!!)
 
 
 POSCAR: XYZ: B12                                
  positions in direct lattice
  velocities in cartesian coordinates
 exchange correlation table for  LEXCH =        8
   RHO(1)=    0.500       N(1)  =     2000
   RHO(2)=  100.500       N(2)  =     4000
 


--------------------------------------------------------------------------------------------------------


 ion  position               nearest neighbor table
   1  0.010  0.654  0.010-   6 1.67   2 1.74   3 1.74   7 1.79  10 1.80  11 1.80
   2  0.010  0.010  0.654-   5 1.67   3 1.74   1 1.74   8 1.79  10 1.80  12 1.80
   3  0.654  0.010  0.010-   4 1.67   2 1.74   1 1.74   9 1.79  12 1.80  11 1.80
   4  0.346  0.990  0.990-   3 1.67   5 1.74   6 1.74  10 1.79   7 1.80   8 1.80
   5  0.990  0.990  0.346-   2 1.67   4 1.74   6 1.74  11 1.79   9 1.80   7 1.80
   6  0.990  0.346  0.990-   1 1.67   5 1.74   4 1.74  12 1.79   9 1.80   8 1.80
   7  0.221  0.630  0.221-  10 1.77  11 1.77   1 1.79   4 1.80   5 1.80   8 2.00   9 2.00
   8  0.221  0.221  0.630-  10 1.77  12 1.77   2 1.79   4 1.80   6 1.80   7 2.00   9 2.00
   9  0.630  0.221  0.221-  12 1.77  11 1.77   3 1.79   6 1.80   5 1.80   8 2.00   7 2.00
  10  0.370  0.779  0.779-   7 1.77   8 1.77   4 1.79   1 1.80   2 1.80  11 2.00  12 2.00
  11  0.779  0.779  0.370-   7 1.77   9 1.77   5 1.79   3 1.80   1 1.80  10 2.00  12 2.00
  12  0.779  0.370  0.779-   9 1.77   8 1.77   6 1.79   3 1.80   2 1.80  11 2.00  10 2.00
 
  LATTYP: Found a trigonal (rhomboedric) cell.
 ALAT       =     5.0343089373
 COS(alpha) =     0.5295572246
  
  Lattice vectors:
  
 A1 = (   2.4416210867,   1.4096705917,   4.1708010943)
 A2 = (  -2.4416210867,   1.4096705917,   4.1708010943)
 A3 = (   0.0000000000,  -2.8193411833,   4.1708010943)
 Subroutine PRICEL returns:
 Original cell was already a primitive cell.
 

Analysis of symmetry for initial positions (statically):

 Routine SETGRP: Setting up the symmetry group for a 
 trigonal (rhombohedral) supercell.


 Subroutine GETGRP returns: Found 12 space group operations
 (whereof 12 operations were pure point group operations)
 out of a pool of 12 trial point group operations.


The static configuration has the point symmetry D_3d.

Analysis of symmetry for dynamics (positions and initial velocities):

 Subroutine DYNSYM returns: Found 12 space group operations
 (whereof 12 operations were pure point group operations)
 out of a pool of 12 trial space group operations
 (whereof 12 operations were pure point group operations)
 and found also     1 'primitive' translations


The dynamic configuration has the point symmetry D_3d.
 
 
 KPOINTS: Automatic mesh                          

Automatic generation of k-mesh.
 
 Subroutine IBZKPT returns following result:
 ===========================================
 
 Found    116 irreducible k-points:
 
 Following reciprocal coordinates:
            Coordinates               Weight
  0.000000  0.000000  0.000000      1.000000
  0.100000  0.000000  0.000000      6.000000
  0.200000  0.000000  0.000000      6.000000
  0.300000  0.000000  0.000000      6.000000
  0.400000  0.000000  0.000000      6.000000
  0.500000  0.000000  0.000000      3.000000
  0.100000  0.100000  0.000000      6.000000
  0.200000  0.100000  0.000000     12.000000
  0.300000  0.100000  0.000000     12.000000
  0.400000  0.100000  0.000000     12.000000
  0.500000  0.100000  0.000000     12.000000
 -0.400000  0.100000  0.000000     12.000000
 -0.300000  0.100000  0.000000     12.000000
 -0.200000  0.100000  0.000000     12.000000
 -0.100000  0.100000  0.000000      6.000000
  0.200000  0.200000  0.000000      6.000000
  0.300000  0.200000  0.000000     12.000000
  0.400000  0.200000  0.000000     12.000000
  0.500000  0.200000  0.000000     12.000000
 -0.400000  0.200000  0.000000     12.000000
 -0.300000  0.200000  0.000000     12.000000
 -0.200000  0.200000  0.000000      6.000000
  0.300000  0.300000  0.000000      6.000000
  0.400000  0.300000  0.000000     12.000000
  0.500000  0.300000  0.000000     12.000000
 -0.400000  0.300000  0.000000     12.000000
 -0.300000  0.300000  0.000000      6.000000
  0.400000  0.400000  0.000000      6.000000
  0.500000  0.400000  0.000000     12.000000
 -0.400000  0.400000  0.000000      6.000000
  0.500000  0.500000  0.000000      3.000000
  0.100000  0.100000  0.100000      2.000000
  0.200000  0.100000  0.100000      6.000000
  0.300000  0.100000  0.100000      6.000000
  0.400000  0.100000  0.100000      6.000000
  0.500000  0.100000  0.100000      6.000000
 -0.400000  0.100000  0.100000      6.000000
 -0.300000  0.100000  0.100000      6.000000
 -0.200000  0.100000  0.100000      6.000000
 -0.100000  0.100000  0.100000      6.000000
  0.200000  0.200000  0.100000      6.000000
  0.300000  0.200000  0.100000     12.000000
  0.400000  0.200000  0.100000     12.000000
  0.500000  0.200000  0.100000     12.000000
 -0.400000  0.200000  0.100000     12.000000
 -0.300000  0.200000  0.100000     12.000000
 -0.200000  0.200000  0.100000     12.000000
 -0.100000  0.200000  0.100000     12.000000
  0.300000  0.300000  0.100000      6.000000
  0.400000  0.300000  0.100000     12.000000
  0.500000  0.300000  0.100000     12.000000
 -0.400000  0.300000  0.100000     12.000000
 -0.300000  0.300000  0.100000     12.000000
 -0.200000  0.300000  0.100000     12.000000
 -0.100000  0.300000  0.100000     12.000000
  0.400000  0.400000  0.100000      6.000000
  0.500000  0.400000  0.100000     12.000000
 -0.400000  0.400000  0.100000     12.000000
 -0.300000  0.400000  0.100000     12.000000
 -0.200000  0.400000  0.100000     12.000000
 -0.100000  0.400000  0.100000     12.000000
  0.500000  0.500000  0.100000      6.000000
 -0.400000  0.500000  0.100000     12.000000
 -0.300000  0.500000  0.100000     12.000000
 -0.200000  0.500000  0.100000     12.000000
 -0.100000  0.500000  0.100000      6.000000
 -0.400000 -0.400000  0.100000      6.000000
 -0.300000 -0.400000  0.100000     12.000000
 -0.200000 -0.400000  0.100000     12.000000
 -0.300000 -0.300000  0.100000      6.000000
 -0.200000 -0.300000  0.100000     12.000000
 -0.200000 -0.200000  0.100000      6.000000
  0.200000  0.200000  0.200000      2.000000
  0.300000  0.200000  0.200000      6.000000
  0.400000  0.200000  0.200000      6.000000
  0.500000  0.200000  0.200000      6.000000
 -0.400000  0.200000  0.200000      6.000000
 -0.300000  0.200000  0.200000      6.000000
 -0.200000  0.200000  0.200000      6.000000
  0.300000  0.300000  0.200000      6.000000
  0.400000  0.300000  0.200000     12.000000
  0.500000  0.300000  0.200000     12.000000
 -0.400000  0.300000  0.200000     12.000000
 -0.300000  0.300000  0.200000     12.000000
 -0.200000  0.300000  0.200000     12.000000
  0.400000  0.400000  0.200000      6.000000
  0.500000  0.400000  0.200000     12.000000
 -0.400000  0.400000  0.200000     12.000000
 -0.300000  0.400000  0.200000     12.000000
 -0.200000  0.400000  0.200000     12.000000
  0.500000  0.500000  0.200000      6.000000
 -0.400000  0.500000  0.200000     12.000000
 -0.300000  0.500000  0.200000     12.000000
 -0.200000  0.500000  0.200000      6.000000
 -0.400000 -0.400000  0.200000      6.000000
 -0.300000 -0.400000  0.200000     12.000000
 -0.300000 -0.300000  0.200000      6.000000
  0.300000  0.300000  0.300000      2.000000
  0.400000  0.300000  0.300000      6.000000
  0.500000  0.300000  0.300000      6.000000
 -0.400000  0.300000  0.300000      6.000000
 -0.300000  0.300000  0.300000      6.000000
  0.400000  0.400000  0.300000      6.000000
  0.500000  0.400000  0.300000     12.000000
 -0.400000  0.400000  0.300000     12.000000
 -0.300000  0.400000  0.300000     12.000000
  0.500000  0.500000  0.300000      6.000000
 -0.400000  0.500000  0.300000     12.000000
 -0.300000  0.500000  0.300000      6.000000
 -0.400000 -0.400000  0.300000      6.000000
  0.400000  0.400000  0.400000      2.000000
  0.500000  0.400000  0.400000      6.000000
 -0.400000  0.400000  0.400000      6.000000
  0.500000  0.500000  0.400000      6.000000
 -0.400000  0.500000  0.400000      6.000000
  0.500000  0.500000  0.500000      1.000000
 
 Following cartesian coordinates:
            Coordinates               Weight
  0.000000  0.000000  0.000000      1.000000
  0.020478  0.011823  0.007992      6.000000
  0.040956  0.023646  0.015984      6.000000
  0.061435  0.035469  0.023976      6.000000
  0.081913  0.047292  0.031968      6.000000
  0.102391  0.059115  0.039960      3.000000
  0.000000  0.023646  0.015984      6.000000
  0.020478  0.035469  0.023976     12.000000
  0.040956  0.047292  0.031968     12.000000
  0.061435  0.059115  0.039960     12.000000
  0.081913  0.070939  0.047952     12.000000
 -0.102391 -0.035469 -0.023976     12.000000
 -0.081913 -0.023646 -0.015984     12.000000
 -0.061435 -0.011823 -0.007992     12.000000
 -0.040956  0.000000  0.000000      6.000000
  0.000000  0.047292  0.031968      6.000000
  0.020478  0.059115  0.039960     12.000000
  0.040956  0.070939  0.047952     12.000000
  0.061435  0.082762  0.055944     12.000000
 -0.122869 -0.023646 -0.015984     12.000000
 -0.102391 -0.011823 -0.007992     12.000000
 -0.081913  0.000000  0.000000      6.000000
  0.000000  0.070939  0.047952      6.000000
  0.020478  0.082762  0.055944     12.000000
  0.040956  0.094585  0.063937     12.000000
 -0.143347 -0.011823 -0.007992     12.000000
 -0.122869  0.000000  0.000000      6.000000
  0.000000  0.094585  0.063937      6.000000
  0.020478  0.106408  0.071929     12.000000
 -0.163826  0.000000  0.000000      6.000000
  0.000000  0.118231  0.079921      3.000000
  0.000000  0.000000  0.023976      2.000000
  0.020478  0.011823  0.031968      6.000000
  0.040956  0.023646  0.039960      6.000000
  0.061435  0.035469  0.047952      6.000000
  0.081913  0.047292  0.055944      6.000000
 -0.102391 -0.059115 -0.015984      6.000000
 -0.081913 -0.047292 -0.007992      6.000000
 -0.061435 -0.035469  0.000000      6.000000
 -0.040956 -0.023646  0.007992      6.000000
  0.000000  0.023646  0.039960      6.000000
  0.020478  0.035469  0.047952     12.000000
  0.040956  0.047292  0.055944     12.000000
  0.061435  0.059115  0.063937     12.000000
 -0.122869 -0.047292 -0.007992     12.000000
 -0.102391 -0.035469  0.000000     12.000000
 -0.081913 -0.023646  0.007992     12.000000
 -0.061435 -0.011823  0.015984     12.000000
  0.000000  0.047292  0.055944      6.000000
  0.020478  0.059115  0.063937     12.000000
  0.040956  0.070939  0.071929     12.000000
 -0.143347 -0.035469  0.000000     12.000000
 -0.122869 -0.023646  0.007992     12.000000
 -0.102391 -0.011823  0.015984     12.000000
 -0.081913  0.000000  0.023976     12.000000
  0.000000  0.070939  0.071929      6.000000
  0.020478  0.082762  0.079921     12.000000
 -0.163826 -0.023646  0.007992     12.000000
 -0.143347 -0.011823  0.015984     12.000000
 -0.122869  0.000000  0.023976     12.000000
 -0.102391  0.011823  0.031968     12.000000
  0.000000  0.094585  0.087913      6.000000
 -0.184304 -0.011823  0.015984     12.000000
 -0.163826  0.000000  0.023976     12.000000
 -0.143347  0.011823  0.031968     12.000000
 -0.122869  0.023646  0.039960      6.000000
  0.000000 -0.118231 -0.055944      6.000000
  0.020478 -0.106408 -0.047952     12.000000
  0.040956 -0.094585 -0.039960     12.000000
  0.000000 -0.094585 -0.039960      6.000000
  0.020478 -0.082762 -0.031968     12.000000
  0.000000 -0.070939 -0.023976      6.000000
  0.000000  0.000000  0.047952      2.000000
  0.020478  0.011823  0.055944      6.000000
  0.040956  0.023646  0.063937      6.000000
  0.061435  0.035469  0.071929      6.000000
 -0.122869 -0.070939  0.000000      6.000000
 -0.102391 -0.059115  0.007992      6.000000
 -0.081913 -0.047292  0.015984      6.000000
  0.000000  0.023646  0.063937      6.000000
  0.020478  0.035469  0.071929     12.000000
  0.040956  0.047292  0.079921     12.000000
 -0.143347 -0.059115  0.007992     12.000000
 -0.122869 -0.047292  0.015984     12.000000
 -0.102391 -0.035469  0.023976     12.000000
  0.000000  0.047292  0.079921      6.000000
  0.020478  0.059115  0.087913     12.000000
 -0.163826 -0.047292  0.015984     12.000000
 -0.143347 -0.035469  0.023976     12.000000
 -0.122869 -0.023646  0.031968     12.000000
  0.000000  0.070939  0.095905      6.000000
 -0.184304 -0.035469  0.023976     12.000000
 -0.163826 -0.023646  0.031968     12.000000
 -0.143347 -0.011823  0.039960      6.000000
  0.000000 -0.141877 -0.047952      6.000000
  0.020478 -0.130054 -0.039960     12.000000
  0.000000 -0.118231 -0.031968      6.000000
  0.000000  0.000000  0.071929      2.000000
  0.020478  0.011823  0.079921      6.000000
  0.040956  0.023646  0.087913      6.000000
 -0.143347 -0.082762  0.015984      6.000000
 -0.122869 -0.070939  0.023976      6.000000
  0.000000  0.023646  0.087913      6.000000
  0.020478  0.035469  0.095905     12.000000
 -0.163826 -0.070939  0.023976     12.000000
 -0.143347 -0.059115  0.031968     12.000000
  0.000000  0.047292  0.103897      6.000000
 -0.184304 -0.059115  0.031968     12.000000
 -0.163826 -0.047292  0.039960      6.000000
  0.000000 -0.165523 -0.039960      6.000000
  0.000000  0.000000  0.095905      2.000000
  0.020478  0.011823  0.103897      6.000000
 -0.163826 -0.094585  0.031968      6.000000
  0.000000  0.023646  0.111889      6.000000
 -0.184304 -0.082762  0.039960      6.000000
  0.000000  0.000000  0.119881      1.000000
 


--------------------------------------------------------------------------------------------------------




 Dimension of arrays:
   k-points           NKPTS =    116   k-points in BZ     NKDIM =    116   number of bands    NBANDS=     28
   number of dos      NEDOS =    301   number of ions     NIONS =     12
   non local maximal  LDIM  =      4   non local SUM 2l+1 LMDIM =      8
   total plane-waves  NPLWV =  13824
   max r-space proj   IRMAX =   2133   max aug-charges    IRDMAX=   2702
   dimension x,y,z NGX =    24 NGY =   24 NGZ =   24
   dimension x,y,z NGXF=    48 NGYF=   48 NGZF=   48
   support grid    NGXF=    48 NGYF=   48 NGZF=   48
   ions per type =              12
 NGX,Y,Z   is equivalent  to a cutoff of   7.93,  7.93,  7.93 a.u.
 NGXF,Y,Z  is equivalent  to a cutoff of  15.85, 15.85, 15.85 a.u.


 I would recommend the setting:
   dimension x,y,z NGX =    22 NGY =   22 NGZ =   22
 SYSTEM =  B12                                     
 POSCAR =  XYZ: B12                                

 Startparameter for this run:
   NWRITE =      2    write-flag & timer
   PREC   = normal    normal or accurate (medium, high low for compatibility)
   ISTART =      0    job   : 0-new  1-cont  2-samecut
   ICHARG =      2    charge: 1-file 2-atom 10-const
   ISPIN  =      1    spin polarized calculation?
   LNONCOLLINEAR =      F non collinear calculations
   LSORBIT =      F    spin-orbit coupling
   INIWAV =      1    electr: 0-lowe 1-rand  2-diag
   LASPH  =      F    aspherical Exc in radial PAW
   METAGGA=      F    non-selfconsistent MetaGGA calc.

 Electronic Relaxation 1
   ENCUT  =  318.6 eV  23.42 Ry    4.84 a.u.   7.33  7.33  7.33*2*pi/ulx,y,z
   ENINI  =  318.6     initial cutoff
   ENAUG  =  535.5 eV  augmentation charge cutoff
   NELM   =     40;   NELMIN=  2; NELMDL=  0     # of ELM steps 
   EDIFF  = 0.1E-05   stopping-criterion for ELM
   LREAL  =      T    real-space projection
   LCOMPAT=      F    compatible to vasp.4.4
   GGA_COMPAT  = T    GGA compatible to vasp.4.4-vasp.4.6
   LMAXPAW     = -100 max onsite density
   LMAXMIX     =    2 max onsite mixed and CHGCAR
   VOSKOWN=      0    Vosko Wilk Nusair interpolation
   ROPT   =   -0.00050
 Ionic relaxation
   EDIFFG = 0.1E-04   stopping-criterion for IOM
   NSW    =     10    number of steps for IOM
   NBLOCK =      1;   KBLOCK =     10    inner block; outer block 
   IBRION =      2    ionic relax: 0-MD 1-quasi-New 2-CG
   NFREE  =      1    steps in history (QN), initial steepest desc. (CG)
   ISIF   =      3    stress and relaxation
   IWAVPR =     11    prediction:  0-non 1-charg 2-wave 3-comb
   ISYM   =      2    0-nonsym 1-usesym 2-fastsym
   LCORR  =      T    Harris-Foulkes like correction to forces

   POTIM  = 0.2500    time-step for ionic-motion
   TEIN   =    0.0    initial temperature
   TEBEG  =    0.0;   TEEND  =   0.0 temperature during run
   SMASS  =  -3.00    Nose mass-parameter (am)
   estimated Nose-frequenzy (Omega)   =  0.10E-29 period in steps =****** mass=  -0.579E-27a.u.
   SCALEE = 1.0000    scale energy and forces
   NPACO  =    256;   APACO  = 16.0  distance and # of slots for P.C.
   PSTRESS=    0.0 pullay stress

  Mass of Ions in am
   POMASS =  10.81
  Ionic Valenz
   ZVAL   =   3.00
  Atomic Wigner-Seitz radii
   RWIGS  =  -1.00
  virtual crystal weights 
   VCA    =   1.00
   NELECT =      36.0000    total number of electrons
   NUPDOWN=      -1.0000    fix difference up-down

 DOS related values:
   EMIN   =  10.00;   EMAX   =-10.00  energy-range for DOS
   EFERMI =   0.00
   ISMEAR =     1;   SIGMA  =   0.20  broadening in eV -4-tet -1-fermi 0-gaus

 Electronic relaxation 2 (details)
   IALGO  =     38    algorithm
   LDIAG  =      T    sub-space diagonalisation (order eigenvalues)
   LSUBROT=      T    optimize rotation matrix (better conditioning)
   TURBO    =      0    0=normal 1=particle mesh
   IRESTART =      0    0=no restart 2=restart with 2 vectors
   NREBOOT  =      0    no. of reboots
   NMIN     =      0    reboot dimension
   EREF     =   0.00    reference energy to select bands
   IMIX   =      4    mixing-type and parameters
     AMIX     =   0.40;   BMIX     =  1.00
     AMIX_MAG =   1.60;   BMIX_MAG =  1.00
     AMIN     =   0.10
     WC   =   100.;   INIMIX=   1;  MIXPRE=   1

 Intra band minimization:
   WEIMIN = 0.0010     energy-eigenvalue tresh-hold
   EBREAK =  0.10E-07  absolut break condition
   DEPER  =   0.30     relativ break condition  

   TIME   =   0.40     timestep for ELM

  volume/ion in A,a.u.               =       7.18        48.44
  Fermi-wavevector in a.u.,A,eV,Ry     =   1.224015  2.313053 20.384426  1.498213
  Thomas-Fermi vector in A             =   2.359105
 
 Write flags
   LWAVE  =      F    write WAVECAR
   LCHARG =      F    write CHGCAR
   LVTOT  =      F    write LOCPOT, total local potential
   LVHAR  =      F    write LOCPOT, Hartree potential only
   LELF   =      F    write electronic localiz. function (ELF)
   LORBIT =      0    0 simple, 1 ext, 2 COOP (PROOUT)


 Dipole corrections
   LMONO  =      F    monopole corrections only (constant potential shift)
   LDIPOL =      F    correct potential (dipole corrections)
   IDIPOL =      0    1-x, 2-y, 3-z, 4-all directions 
   EPSILON=  1.0000000 bulk dielectric constant

 Exchange correlation treatment:
   GGA     =    --    GGA type
   LEXCH   =     8    internal setting for exchange type
   VOSKOWN=      0    Vosko Wilk Nusair interpolation
   LHFCALC =     F    Hartree Fock is set to
   LHFONE  =     F    Hartree Fock one center treatment
   AEXX    =    0.0000 exact exchange contribution

 Linear response parameters
   LEPSILON=     F    determine dielectric tensor
   LRPA    =     F    only Hartree local field effects (RPA)
   LNABLA  =     F    use nabla operator in PAW spheres
   LVEL    =     F    velocity operator in full k-point grid
   LINTERFAST=   F  fast interpolation
   KINTER  =     0    interpolate to denser k-point grid
   CSHIFT  =0.1000    complex shift for real part using Kramers Kronig
   OMEGAMAX=  -1.0    maximum frequency
   RTIME   =    0.100 relaxation time in fs

 Orbital magnetization related:
   ORBITALMAG=     F  switch on orbital magnetization
   LCHIMAG   =     F  perturbation theory with respect to B field
   DQ        =  0.001000  dq finite difference perturbation B field



--------------------------------------------------------------------------------------------------------


 conjugate gradient relaxation of ions
 charge density and potential will be updated during run
 non-spin polarized calculation
 Variant of blocked Davidson
 Davidson routine will perform the subspace rotation
 perform sub-space diagonalisation
    after iterative eigenvector-optimisation
 modified Broyden-mixing scheme, WC =      100.0
 initial mixing is a Kerker type mixing with AMIX =  0.4000 and BMIX =      1.0000
 Hartree-type preconditioning will be used
 using additional bands           10
 real space projection scheme for non local part
 use partial core corrections
 calculate Harris-corrections to forces 
   (improved forces if not selfconsistent)
 use gradient corrections 
 use of overlap-Matrix (Vanderbilt PP)
 Methfessel and Paxton  Order N= 1 SIGMA  =   0.20


--------------------------------------------------------------------------------------------------------


  energy-cutoff  :      318.61
  volume of cell :       86.13
      direct lattice vectors                 reciprocal lattice vectors
     2.441621087  1.409670592  4.170801094     0.204781980  0.118230931  0.079920698
    -2.441621087  1.409670592  4.170801094    -0.204781980  0.118230931  0.079920698
     0.000000000 -2.819341183  4.170801094     0.000000000 -0.236461862  0.079920698

  length of vectors
     5.034308937  5.034308937  5.034308937     0.249602745  0.249602745  0.249602745


 
 k-points in units of 2pi/SCALE and weight: Automatic mesh                          
   0.00000000  0.00000000  0.00000000       0.001
   0.02047820  0.01182309  0.00799207       0.006
   0.04095640  0.02364619  0.01598414       0.006
   0.06143459  0.03546928  0.02397621       0.006
   0.08191279  0.04729237  0.03196828       0.006
   0.10239099  0.05911547  0.03996035       0.003
   0.00000000  0.02364619  0.01598414       0.006
   0.02047820  0.03546928  0.02397621       0.012
   0.04095640  0.04729237  0.03196828       0.012
   0.06143459  0.05911547  0.03996035       0.012
   0.08191279  0.07093856  0.04795242       0.012
  -0.10239099 -0.03546928 -0.02397621       0.012
  -0.08191279 -0.02364619 -0.01598414       0.012
  -0.06143459 -0.01182309 -0.00799207       0.012
  -0.04095640  0.00000000  0.00000000       0.006
   0.00000000  0.04729237  0.03196828       0.006
   0.02047820  0.05911547  0.03996035       0.012
   0.04095640  0.07093856  0.04795242       0.012
   0.06143459  0.08276165  0.05594449       0.012
  -0.12286919 -0.02364619 -0.01598414       0.012
  -0.10239099 -0.01182309 -0.00799207       0.012
  -0.08191279  0.00000000  0.00000000       0.006
   0.00000000  0.07093856  0.04795242       0.006
   0.02047820  0.08276165  0.05594449       0.012
   0.04095640  0.09458474  0.06393656       0.012
  -0.14334739 -0.01182309 -0.00799207       0.012
  -0.12286919  0.00000000  0.00000000       0.006
   0.00000000  0.09458474  0.06393656       0.006
   0.02047820  0.10640784  0.07192863       0.012
  -0.16382558  0.00000000  0.00000000       0.006
   0.00000000  0.11823093  0.07992070       0.003
   0.00000000  0.00000000  0.02397621       0.002
   0.02047820  0.01182309  0.03196828       0.006
   0.04095640  0.02364619  0.03996035       0.006
   0.06143459  0.03546928  0.04795242       0.006
   0.08191279  0.04729237  0.05594449       0.006
  -0.10239099 -0.05911547 -0.01598414       0.006
  -0.08191279 -0.04729237 -0.00799207       0.006
  -0.06143459 -0.03546928  0.00000000       0.006
  -0.04095640 -0.02364619  0.00799207       0.006
   0.00000000  0.02364619  0.03996035       0.006
   0.02047820  0.03546928  0.04795242       0.012
   0.04095640  0.04729237  0.05594449       0.012
   0.06143459  0.05911547  0.06393656       0.012
  -0.12286919 -0.04729237 -0.00799207       0.012
  -0.10239099 -0.03546928  0.00000000       0.012
  -0.08191279 -0.02364619  0.00799207       0.012
  -0.06143459 -0.01182309  0.01598414       0.012
   0.00000000  0.04729237  0.05594449       0.006
   0.02047820  0.05911547  0.06393656       0.012
   0.04095640  0.07093856  0.07192863       0.012
  -0.14334739 -0.03546928  0.00000000       0.012
  -0.12286919 -0.02364619  0.00799207       0.012
  -0.10239099 -0.01182309  0.01598414       0.012
  -0.08191279  0.00000000  0.02397621       0.012
   0.00000000  0.07093856  0.07192863       0.006
   0.02047820  0.08276165  0.07992070       0.012
  -0.16382558 -0.02364619  0.00799207       0.012
  -0.14334739 -0.01182309  0.01598414       0.012
  -0.12286919  0.00000000  0.02397621       0.012
  -0.10239099  0.01182309  0.03196828       0.012
   0.00000000  0.09458474  0.08791277       0.006
  -0.18430378 -0.01182309  0.01598414       0.012
  -0.16382558  0.00000000  0.02397621       0.012
  -0.14334739  0.01182309  0.03196828       0.012
  -0.12286919  0.02364619  0.03996035       0.006
   0.00000000 -0.11823093 -0.05594449       0.006
   0.02047820 -0.10640784 -0.04795242       0.012
   0.04095640 -0.09458474 -0.03996035       0.012
   0.00000000 -0.09458474 -0.03996035       0.006
   0.02047820 -0.08276165 -0.03196828       0.012
   0.00000000 -0.07093856 -0.02397621       0.006
   0.00000000  0.00000000  0.04795242       0.002
   0.02047820  0.01182309  0.05594449       0.006
   0.04095640  0.02364619  0.06393656       0.006
   0.06143459  0.03546928  0.07192863       0.006
  -0.12286919 -0.07093856  0.00000000       0.006
  -0.10239099 -0.05911547  0.00799207       0.006
  -0.08191279 -0.04729237  0.01598414       0.006
   0.00000000  0.02364619  0.06393656       0.006
   0.02047820  0.03546928  0.07192863       0.012
   0.04095640  0.04729237  0.07992070       0.012
  -0.14334739 -0.05911547  0.00799207       0.012
  -0.12286919 -0.04729237  0.01598414       0.012
  -0.10239099 -0.03546928  0.02397621       0.012
   0.00000000  0.04729237  0.07992070       0.006
   0.02047820  0.05911547  0.08791277       0.012
  -0.16382558 -0.04729237  0.01598414       0.012
  -0.14334739 -0.03546928  0.02397621       0.012
  -0.12286919 -0.02364619  0.03196828       0.012
   0.00000000  0.07093856  0.09590484       0.006
  -0.18430378 -0.03546928  0.02397621       0.012
  -0.16382558 -0.02364619  0.03196828       0.012
  -0.14334739 -0.01182309  0.03996035       0.006
   0.00000000 -0.14187712 -0.04795242       0.006
   0.02047820 -0.13005402 -0.03996035       0.012
   0.00000000 -0.11823093 -0.03196828       0.006
   0.00000000  0.00000000  0.07192863       0.002
   0.02047820  0.01182309  0.07992070       0.006
   0.04095640  0.02364619  0.08791277       0.006
  -0.14334739 -0.08276165  0.01598414       0.006
  -0.12286919 -0.07093856  0.02397621       0.006
   0.00000000  0.02364619  0.08791277       0.006
   0.02047820  0.03546928  0.09590484       0.012
  -0.16382558 -0.07093856  0.02397621       0.012
  -0.14334739 -0.05911547  0.03196828       0.012
   0.00000000  0.04729237  0.10389691       0.006
  -0.18430378 -0.05911547  0.03196828       0.012
  -0.16382558 -0.04729237  0.03996035       0.006
   0.00000000 -0.16552330 -0.03996035       0.006
   0.00000000  0.00000000  0.09590484       0.002
   0.02047820  0.01182309  0.10389691       0.006
  -0.16382558 -0.09458474  0.03196828       0.006
   0.00000000  0.02364619  0.11188898       0.006
  -0.18430378 -0.08276165  0.03996035       0.006
   0.00000000  0.00000000  0.11988105       0.001
 
 k-points in reciprocal lattice and weights: Automatic mesh                          
   0.00000000  0.00000000  0.00000000       0.001
   0.10000000  0.00000000  0.00000000       0.006
   0.20000000  0.00000000  0.00000000       0.006
   0.30000000  0.00000000  0.00000000       0.006
   0.40000000  0.00000000  0.00000000       0.006
   0.50000000  0.00000000  0.00000000       0.003
   0.10000000  0.10000000  0.00000000       0.006
   0.20000000  0.10000000  0.00000000       0.012
   0.30000000  0.10000000  0.00000000       0.012
   0.40000000  0.10000000  0.00000000       0.012
   0.50000000  0.10000000  0.00000000       0.012
  -0.40000000  0.10000000  0.00000000       0.012
  -0.30000000  0.10000000  0.00000000       0.012
  -0.20000000  0.10000000  0.00000000       0.012
  -0.10000000  0.10000000  0.00000000       0.006
   0.20000000  0.20000000  0.00000000       0.006
   0.30000000  0.20000000  0.00000000       0.012
   0.40000000  0.20000000  0.00000000       0.012
   0.50000000  0.20000000  0.00000000       0.012
  -0.40000000  0.20000000  0.00000000       0.012
  -0.30000000  0.20000000  0.00000000       0.012
  -0.20000000  0.20000000  0.00000000       0.006
   0.30000000  0.30000000  0.00000000       0.006
   0.40000000  0.30000000  0.00000000       0.012
   0.50000000  0.30000000  0.00000000       0.012
  -0.40000000  0.30000000  0.00000000       0.012
  -0.30000000  0.30000000  0.00000000       0.006
   0.40000000  0.40000000  0.00000000       0.006
   0.50000000  0.40000000  0.00000000       0.012
  -0.40000000  0.40000000  0.00000000       0.006
   0.50000000  0.50000000  0.00000000       0.003
   0.10000000  0.10000000  0.10000000       0.002
   0.20000000  0.10000000  0.10000000       0.006
   0.30000000  0.10000000  0.10000000       0.006
   0.40000000  0.10000000  0.10000000       0.006
   0.50000000  0.10000000  0.10000000       0.006
  -0.40000000  0.10000000  0.10000000       0.006
  -0.30000000  0.10000000  0.10000000       0.006
  -0.20000000  0.10000000  0.10000000       0.006
  -0.10000000  0.10000000  0.10000000       0.006
   0.20000000  0.20000000  0.10000000       0.006
   0.30000000  0.20000000  0.10000000       0.012
   0.40000000  0.20000000  0.10000000       0.012
   0.50000000  0.20000000  0.10000000       0.012
  -0.40000000  0.20000000  0.10000000       0.012
  -0.30000000  0.20000000  0.10000000       0.012
  -0.20000000  0.20000000  0.10000000       0.012
  -0.10000000  0.20000000  0.10000000       0.012
   0.30000000  0.30000000  0.10000000       0.006
   0.40000000  0.30000000  0.10000000       0.012
   0.50000000  0.30000000  0.10000000       0.012
  -0.40000000  0.30000000  0.10000000       0.012
  -0.30000000  0.30000000  0.10000000       0.012
  -0.20000000  0.30000000  0.10000000       0.012
  -0.10000000  0.30000000  0.10000000       0.012
   0.40000000  0.40000000  0.10000000       0.006
   0.50000000  0.40000000  0.10000000       0.012
  -0.40000000  0.40000000  0.10000000       0.012
  -0.30000000  0.40000000  0.10000000       0.012
  -0.20000000  0.40000000  0.10000000       0.012
  -0.10000000  0.40000000  0.10000000       0.012
   0.50000000  0.50000000  0.10000000       0.006
  -0.40000000  0.50000000  0.10000000       0.012
  -0.30000000  0.50000000  0.10000000       0.012
  -0.20000000  0.50000000  0.10000000       0.012
  -0.10000000  0.50000000  0.10000000       0.006
  -0.40000000 -0.40000000  0.10000000       0.006
  -0.30000000 -0.40000000  0.10000000       0.012
  -0.20000000 -0.40000000  0.10000000       0.012
  -0.30000000 -0.30000000  0.10000000       0.006
  -0.20000000 -0.30000000  0.10000000       0.012
  -0.20000000 -0.20000000  0.10000000       0.006
   0.20000000  0.20000000  0.20000000       0.002
   0.30000000  0.20000000  0.20000000       0.006
   0.40000000  0.20000000  0.20000000       0.006
   0.50000000  0.20000000  0.20000000       0.006
  -0.40000000  0.20000000  0.20000000       0.006
  -0.30000000  0.20000000  0.20000000       0.006
  -0.20000000  0.20000000  0.20000000       0.006
   0.30000000  0.30000000  0.20000000       0.006
   0.40000000  0.30000000  0.20000000       0.012
   0.50000000  0.30000000  0.20000000       0.012
  -0.40000000  0.30000000  0.20000000       0.012
  -0.30000000  0.30000000  0.20000000       0.012
  -0.20000000  0.30000000  0.20000000       0.012
   0.40000000  0.40000000  0.20000000       0.006
   0.50000000  0.40000000  0.20000000       0.012
  -0.40000000  0.40000000  0.20000000       0.012
  -0.30000000  0.40000000  0.20000000       0.012
  -0.20000000  0.40000000  0.20000000       0.012
   0.50000000  0.50000000  0.20000000       0.006
  -0.40000000  0.50000000  0.20000000       0.012
  -0.30000000  0.50000000  0.20000000       0.012
  -0.20000000  0.50000000  0.20000000       0.006
  -0.40000000 -0.40000000  0.20000000       0.006
  -0.30000000 -0.40000000  0.20000000       0.012
  -0.30000000 -0.30000000  0.20000000       0.006
   0.30000000  0.30000000  0.30000000       0.002
   0.40000000  0.30000000  0.30000000       0.006
   0.50000000  0.30000000  0.30000000       0.006
  -0.40000000  0.30000000  0.30000000       0.006
  -0.30000000  0.30000000  0.30000000       0.006
   0.40000000  0.40000000  0.30000000       0.006
   0.50000000  0.40000000  0.30000000       0.012
  -0.40000000  0.40000000  0.30000000       0.012
  -0.30000000  0.40000000  0.30000000       0.012
   0.50000000  0.50000000  0.30000000       0.006
  -0.40000000  0.50000000  0.30000000       0.012
  -0.30000000  0.50000000  0.30000000       0.006
  -0.40000000 -0.40000000  0.30000000       0.006
   0.40000000  0.40000000  0.40000000       0.002
   0.50000000  0.40000000  0.40000000       0.006
  -0.40000000  0.40000000  0.40000000       0.006
   0.50000000  0.50000000  0.40000000       0.006
  -0.40000000  0.50000000  0.40000000       0.006
   0.50000000  0.50000000  0.50000000       0.001
 
 position of ions in fractional coordinates (direct lattice) 
   0.01043574  0.65384957  0.01043574
   0.01043574  0.01043574  0.65384957
   0.65384957  0.01043574  0.01043574
   0.34615043  0.98956426  0.98956426
   0.98956426  0.98956426  0.34615043
   0.98956426  0.34615043  0.98956426
   0.22142491  0.63001863  0.22142491
   0.22142491  0.22142491  0.63001863
   0.63001863  0.22142491  0.22142491
   0.36998137  0.77857509  0.77857509
   0.77857509  0.77857509  0.36998137
   0.77857509  0.36998137  0.77857509
 
 position of ions in cartesian coordinates  (Angst):
  -1.57097277  0.90700155  2.81412724
   0.00000000 -1.81400311  2.81412724
   1.57097277  0.90700155  2.81412724
  -1.57097277 -0.90700155  9.69827604
   0.00000000  1.81400311  9.69827604
   1.57097277 -0.90700155  9.69827604
  -0.99763104  0.57598255  4.47472087
   0.00000000 -1.15196510  4.47472087
   0.99763104  0.57598255  4.47472087
  -0.99763104 -0.57598255  8.03768242
   0.00000000  1.15196510  8.03768242
   0.99763104 -0.57598255  8.03768242
 


--------------------------------------------------------------------------------------------------------


 k-point  1 :  0.00000.00000.0000  plane waves:    1123
 k-point  2 :  0.10000.00000.0000  plane waves:    1114
 k-point  3 :  0.20000.00000.0000  plane waves:    1113
 k-point  4 :  0.30000.00000.0000  plane waves:    1112
 k-point  5 :  0.40000.00000.0000  plane waves:    1117
 k-point  6 :  0.50000.00000.0000  plane waves:    1120
 k-point  7 :  0.10000.10000.0000  plane waves:    1113
 k-point  8 :  0.20000.10000.0000  plane waves:    1106
 k-point  9 :  0.30000.10000.0000  plane waves:    1110
 k-point 10 :  0.40000.10000.0000  plane waves:    1115
 k-point 11 :  0.50000.10000.0000  plane waves:    1118
 k-point 12 :  -.40000.10000.0000  plane waves:    1117
 k-point 13 :  -.30000.10000.0000  plane waves:    1112
 k-point 14 :  -.20000.10000.0000  plane waves:    1119
 k-point 15 :  -.10000.10000.0000  plane waves:    1111
 k-point 16 :  0.20000.20000.0000  plane waves:    1106
 k-point 17 :  0.30000.20000.0000  plane waves:    1107
 k-point 18 :  0.40000.20000.0000  plane waves:    1112
 k-point 19 :  0.50000.20000.0000  plane waves:    1120
 k-point 20 :  -.40000.20000.0000  plane waves:    1114
 k-point 21 :  -.30000.20000.0000  plane waves:    1113
 k-point 22 :  -.20000.20000.0000  plane waves:    1113
 k-point 23 :  0.30000.30000.0000  plane waves:    1112
 k-point 24 :  0.40000.30000.0000  plane waves:    1108
 k-point 25 :  0.50000.30000.0000  plane waves:    1111
 k-point 26 :  -.40000.30000.0000  plane waves:    1115
 k-point 27 :  -.30000.30000.0000  plane waves:    1119
 k-point 28 :  0.40000.40000.0000  plane waves:    1104
 k-point 29 :  0.50000.40000.0000  plane waves:    1115
 k-point 30 :  -.40000.40000.0000  plane waves:    1111
 k-point 31 :  0.50000.50000.0000  plane waves:    1126
 k-point 32 :  0.10000.10000.1000  plane waves:    1116
 k-point 33 :  0.20000.10000.1000  plane waves:    1104
 k-point 34 :  0.30000.10000.1000  plane waves:    1103
 k-point 35 :  0.40000.10000.1000  plane waves:    1122
 k-point 36 :  0.50000.10000.1000  plane waves:    1115
 k-point 37 :  -.40000.10000.1000  plane waves:    1118
 k-point 38 :  -.30000.10000.1000  plane waves:    1107
 k-point 39 :  -.20000.10000.1000  plane waves:    1116
 k-point 40 :  -.10000.10000.1000  plane waves:    1116
 k-point 41 :  0.20000.20000.1000  plane waves:    1105
 k-point 42 :  0.30000.20000.1000  plane waves:    1108
 k-point 43 :  0.40000.20000.1000  plane waves:    1115
 k-point 44 :  0.50000.20000.1000  plane waves:    1117
 k-point 45 :  -.40000.20000.1000  plane waves:    1116
 k-point 46 :  -.30000.20000.1000  plane waves:    1114
 k-point 47 :  -.20000.20000.1000  plane waves:    1110
 k-point 48 :  -.10000.20000.1000  plane waves:    1113
 k-point 49 :  0.30000.30000.1000  plane waves:    1108
 k-point 50 :  0.40000.30000.1000  plane waves:    1111
 k-point 51 :  0.50000.30000.1000  plane waves:    1112
 k-point 52 :  -.40000.30000.1000  plane waves:    1118
 k-point 53 :  -.30000.30000.1000  plane waves:    1114
 k-point 54 :  -.20000.30000.1000  plane waves:    1108
 k-point 55 :  -.10000.30000.1000  plane waves:    1117
 k-point 56 :  0.40000.40000.1000  plane waves:    1100
 k-point 57 :  0.50000.40000.1000  plane waves:    1107
 k-point 58 :  -.40000.40000.1000  plane waves:    1112
 k-point 59 :  -.30000.40000.1000  plane waves:    1121
 k-point 60 :  -.20000.40000.1000  plane waves:    1119
 k-point 61 :  -.10000.40000.1000  plane waves:    1119
 k-point 62 :  0.50000.50000.1000  plane waves:    1108
 k-point 63 :  -.40000.50000.1000  plane waves:    1118
 k-point 64 :  -.30000.50000.1000  plane waves:    1115
 k-point 65 :  -.20000.50000.1000  plane waves:    1117
 k-point 66 :  -.10000.50000.1000  plane waves:    1126
 k-point 67 :  -.4000-.40000.1000  plane waves:    1109
 k-point 68 :  -.3000-.40000.1000  plane waves:    1112
 k-point 69 :  -.2000-.40000.1000  plane waves:    1118
 k-point 70 :  -.3000-.30000.1000  plane waves:    1113
 k-point 71 :  -.2000-.30000.1000  plane waves:    1107
 k-point 72 :  -.2000-.20000.1000  plane waves:    1114
 k-point 73 :  0.20000.20000.2000  plane waves:    1125
 k-point 74 :  0.30000.20000.2000  plane waves:    1109
 k-point 75 :  0.40000.20000.2000  plane waves:    1111
 k-point 76 :  0.50000.20000.2000  plane waves:    1116
 k-point 77 :  -.40000.20000.2000  plane waves:    1106
 k-point 78 :  -.30000.20000.2000  plane waves:    1120
 k-point 79 :  -.20000.20000.2000  plane waves:    1105
 k-point 80 :  0.30000.30000.2000  plane waves:    1105
 k-point 81 :  0.40000.30000.2000  plane waves:    1104
 k-point 82 :  0.50000.30000.2000  plane waves:    1115
 k-point 83 :  -.40000.30000.2000  plane waves:    1118
 k-point 84 :  -.30000.30000.2000  plane waves:    1117
 k-point 85 :  -.20000.30000.2000  plane waves:    1110
 k-point 86 :  0.40000.40000.2000  plane waves:    1119
 k-point 87 :  0.50000.40000.2000  plane waves:    1106
 k-point 88 :  -.40000.40000.2000  plane waves:    1106
 k-point 89 :  -.30000.40000.2000  plane waves:    1116
 k-point 90 :  -.20000.40000.2000  plane waves:    1118
 k-point 91 :  0.50000.50000.2000  plane waves:    1099
 k-point 92 :  -.40000.50000.2000  plane waves:    1113
 k-point 93 :  -.30000.50000.2000  plane waves:    1116
 k-point 94 :  -.20000.50000.2000  plane waves:    1120
 k-point 95 :  -.4000-.40000.2000  plane waves:    1113
 k-point 96 :  -.3000-.40000.2000  plane waves:    1115
 k-point 97 :  -.3000-.30000.2000  plane waves:    1108
 k-point 98 :  0.30000.30000.3000  plane waves:    1101
 k-point 99 :  0.40000.30000.3000  plane waves:    1096
 k-point ** :  0.50000.30000.3000  plane waves:    1111
 k-point ** :  -.40000.30000.3000  plane waves:    1115
 k-point ** :  -.30000.30000.3000  plane waves:    1116
 k-point ** :  0.40000.40000.3000  plane waves:    1101
 k-point ** :  0.50000.40000.3000  plane waves:    1101
 k-point ** :  -.40000.40000.3000  plane waves:    1107
 k-point ** :  -.30000.40000.3000  plane waves:    1115
 k-point ** :  0.50000.50000.3000  plane waves:    1105
 k-point ** :  -.40000.50000.3000  plane waves:    1100
 k-point ** :  -.30000.50000.3000  plane waves:    1104
 k-point ** :  -.4000-.40000.3000  plane waves:    1108
 k-point ** :  0.40000.40000.4000  plane waves:    1095
 k-point ** :  0.50000.40000.4000  plane waves:    1099
 k-point ** :  -.40000.40000.4000  plane waves:    1107
 k-point ** :  0.50000.50000.4000  plane waves:    1104
 k-point ** :  -.40000.50000.4000  plane waves:    1104
 k-point ** :  0.50000.50000.5000  plane waves:    1098

 maximum and minimum number of plane-waves per node :      1126     1095

 maximum number of plane-waves:      1126
 maximum index in each direction: 
   IXMAX=    7   IYMAX=    7   IZMAX=    7
   IXMIN=   -7   IYMIN=   -7   IZMIN=   -7

 WARNING: aliasing errors must be expected set NGX to  30 to avoid them
 WARNING: aliasing errors must be expected set NGY to  30 to avoid them
 WARNING: aliasing errors must be expected set NGZ to  30 to avoid them
 aliasing errors are usually negligible using standard VASP settings
 and one can safely disregard these warnings

 serial   3D FFT for wavefunctions
 parallel 3D FFT for charge:
    minimum data exchange during FFTs selected (reduces bandwidth)


 total amount of memory used by VASP on root node    51023. kBytes
========================================================================

   base      :      30000. kBytes
   nonlr-proj:       2134. kBytes
   fftplans  :       1025. kBytes
   grid      :       1926. kBytes
   one-center:         36. kBytes
   wavefun   :      15902. kBytes
 
 Broyden mixing: mesh for mixing (old mesh)
   NGX = 15   NGY = 15   NGZ = 15
  (NGX  = 48   NGY  = 48   NGZ  = 48)
  gives a total of   3375 points

 initial charge density was supplied:
 charge density of overlapping atoms calculated
 number of electron      36.0000000 magnetization 
 keeping initial charge density in first step


--------------------------------------------------------------------------------------------------------


 Maximum index for non-local projection operator         2026
 Maximum index for augmentation-charges          615 (set IRDMAX)


--------------------------------------------------------------------------------------------------------


 First call to EWALD:  gamma=   0.401
 Maximum number of real-space cells 3x 3x 3
 Maximum number of reciprocal cells 3x 3x 3

    FEWALD:  cpu time    0.00: real time    0.00


----------------------------------------- Iteration    1(   1)  ---------------------------------------


    POTLOK:  cpu time    0.02: real time    0.02
    SETDIJ:  cpu time    0.01: real time    0.00
     EDDAV:  cpu time    4.89: real time    4.91
       DOS:  cpu time    0.00: real time    0.00
    --------------------------------------------
      LOOP:  cpu time    4.92: real time    4.95

 eigenvalue-minimisations  :  6496
 total energy-change (2. order) : 0.3638854E+02  (-0.1246329E+04)
 number of electron      36.0000000 magnetization 
 augmentation part       36.0000000 magnetization 

 Free energy of the ion-electron system (eV)
  ---------------------------------------------------
  alpha Z        PSCENC =       115.01469804
  Ewald energy   TEWEN  =     -1018.57206117
  -1/2 Hartree   DENC   =       -76.61169290
  -exchange  EXHF       =         0.00000000
  -V(xc)+E(xc)   XCENC  =        87.48336571
  PAW double counting   =       521.99838607     -511.73454670
  entropy T*S    EENTRO =        -0.00046287
  eigenvalues    EBANDS =        64.85292371
  atomic energy  EATOM  =       853.95792905
  ---------------------------------------------------
  free energy    TOTEN  =        36.38853894 eV

  energy without entropy =       36.38900181  energy(sigma->0) =       36.38869323


--------------------------------------------------------------------------------------------------------


 E-fermi :  12.2554     XC(G=0): -11.9065     alpha+bet :-15.4631


 k-point   1 :       0.0000    0.0000    0.0000
  band No.  band energies     occupation 
      1     -10.8013      2.00000
      2      -4.2359      2.00000
      3      -3.8255      2.00000
      4      -2.7976      2.00000
      5      -2.1465      2.00000
      6      -1.9657      2.00000
      7      -1.1299      2.00000
      8      -0.0206      2.00000
      9       0.4536      2.00000
     10       1.2332      2.00000
     11       2.1156      2.00000
     12       2.6325      2.00000
     13       4.1686      2.00000
     14       4.3455      2.00000
     15       7.2682      2.00000
     16       7.4913      2.00000
     17      10.8818      2.00000
     18      12.8138     -0.00057
     19      13.2182      0.00000
     20      14.8112      0.00000
     21      16.2887      0.00000
     22      17.3587      0.00000
     23      19.2961      0.00000
     24      19.7953      0.00000
     25      21.0751      0.00000
     26      21.8905      0.00000
     27      23.6794      0.00000
     28      27.4762      0.00000

 k-point   2 :       0.1000    0.0000    0.0000
  band No.  band energies     occupation 
      1     -10.7480      2.00000
      2      -4.2985      2.00000
      3      -3.6240      2.00000
      4      -3.3501      2.00000
      5      -2.0745      2.00000
      6      -1.3287      2.00000
      7      -0.9308      2.00000
      8       0.1235      2.00000
      9       0.7473      2.00000
     10       1.0259      2.00000
     11       1.5672      2.00000
     12       3.2506      2.00000
     13       5.0038      2.00000
     14       6.7085      2.00000
     15       8.0847      2.00000
     16       8.8879      2.00000
     17       9.8684      2.00000
     18      11.9784      2.06461
     19      14.4337      0.00000
     20      15.3361      0.00000
     21      16.9183      0.00000
     22      17.8173      0.00000
     23      18.6122      0.00000
     24      19.6533      0.00000
     25      20.1653      0.00000
     26      21.7688      0.00000
     27      23.3333      0.00000
     28      24.5699      0.00000

 k-point   3 :       0.2000    0.0000    0.0000
  band No.  band energies     occupation 
      1     -10.4497      2.00000
      2      -5.0396      2.00000
      3      -4.6091      2.00000
      4      -3.6108      2.00000
      5      -1.9769      2.00000
      6      -1.2391      2.00000
      7      -0.6570      2.00000
      8      -0.2475      2.00000
      9       0.7012      2.00000
     10       1.4585      2.00000
     11       2.2745      2.00000
     12       3.5830      2.00000
     13       4.3540      2.00000
     14       5.4205      2.00000
     15       7.6882      2.00000
     16       8.4225      2.00000
     17      10.2115      2.00000
     18      11.4850      2.00000
     19      12.9929      0.00000
     20      14.3074      0.00000
     21      14.9030      0.00000
     22      15.8785      0.00000
     23      18.0279      0.00000
     24      19.0234      0.00000
     25      19.6027      0.00000
     26      21.4221      0.00000
     27      22.6061      0.00000
     28      23.6215      0.00000

 k-point   4 :       0.3000    0.0000    0.0000
  band No.  band energies     occupation 
      1      -9.8168      2.00000
      2      -5.7277      2.00000
      3      -4.5902      2.00000
      4      -3.4822      2.00000
      5      -2.7599      2.00000
      6      -1.4794      2.00000
      7      -0.7318      2.00000
      8       0.0623      2.00000
      9       0.7713      2.00000
     10       1.3290      2.00000
     11       2.5455      2.00000
     12       4.1877      2.00000
     13       4.8604      2.00000
     14       5.4221      2.00000
     15       6.1980      2.00000
     16       8.7810      2.00000
     17       9.7528      2.00000
     18      12.0951      1.98078
     19      13.1978      0.00000
     20      14.6590      0.00000
     21      15.2982      0.00000
     22      16.3140      0.00000
     23      17.3642      0.00000
     24      18.7395      0.00000
     25      20.3415      0.00000
     26      21.9929      0.00000
     27      23.6614      0.00000
     28      26.8036      0.00000

 k-point   5 :       0.4000    0.0000    0.0000
  band No.  band energies     occupation 
      1      -9.6095      2.00000
      2      -5.7321      2.00000
      3      -4.3586      2.00000
      4      -3.1063      2.00000
      5      -2.4321      2.00000
      6      -0.9744      2.00000
      7       0.4005      2.00000
      8       1.2598      2.00000
      9       2.1144      2.00000
     10       2.6885      2.00000
     11       3.5844      2.00000
     12       4.2864      2.00000
     13       5.0137      2.00000
     14       6.4140      2.00000
     15       6.7199      2.00000
     16       8.5080      2.00000
     17      11.0092      2.00000
     18      12.3397      0.35185
     19      13.2823      0.00000
     20      14.4860      0.00000
     21      16.6230      0.00000
     22      17.6244      0.00000
     23      19.1972      0.00000
     24      20.7527      0.00000
     25      21.6473      0.00000
     26      22.6785      0.00000
     27      25.1427      0.00000
     28      26.7788      0.00000

 k-point   6 :       0.5000    0.0000    0.0000
  band No.  band energies     occupation 
      1      -9.2361      2.00000
      2      -6.9041      2.00000
      3      -4.3586      2.00000
      4      -3.5186      2.00000
      5      -2.5479      2.00000
      6      -0.8119      2.00000
      7      -0.5100      2.00000
      8       1.3225      2.00000
      9       1.7662      2.00000
     10       2.7642      2.00000
     11       3.2169      2.00000
     12       3.9629      2.00000
     13       5.3007      2.00000
     14       6.6231      2.00000
     15       8.1314      2.00000
     16       9.1663      2.00000
     17      10.6858      2.00000
     18      11.5354      2.00000
     19      12.4148      0.02138
     20      14.2505      0.00000
     21      14.9049      0.00000
     22      17.3740      0.00000
     23      18.8583      0.00000
     24      19.5540      0.00000
     25      20.9052      0.00000
     26      21.8427      0.00000
     27      23.5498      0.00000
     28      27.1341      0.00000

 k-point   7 :       0.1000    0.1000    0.0000
  band No.  band energies     occupation 
      1     -10.6003      2.00000
      2      -4.1298      2.00000
      3      -3.5922      2.00000
      4      -3.0446      2.00000
      5      -2.0990      2.00000
      6      -1.6231      2.00000
      7      -1.1824      2.00000
      8       0.4276      2.00000
      9       0.6925      2.00000
     10       1.2858      2.00000
     11       2.6539      2.00000
     12       3.1989      2.00000
     13       3.5770      2.00000
     14       4.6132      2.00000
     15       8.7553      2.00000
     16       9.3750      2.00000
     17      10.1515      2.00000
     18      11.8576      2.01658
     19      12.8824     -0.00009
     20      15.0105      0.00000
     21      15.8793      0.00000
     22      18.0408      0.00000
     23      18.9814      0.00000
     24      20.1344      0.00000
     25      20.3755      0.00000
     26      22.2133      0.00000
     27      22.9102      0.00000
     28      26.9443      0.00000

 k-point   8 :       0.2000    0.1000    0.0000
  band No.  band energies     occupation 
      1     -10.2064      2.00000
      2      -5.5610      2.00000
      3      -4.5778      2.00000
      4      -3.9796      2.00000
      5      -2.3600      2.00000
      6      -1.4030      2.00000
      7      -0.7761      2.00000
      8      -0.2847      2.00000
      9       0.1507      2.00000
     10       1.2133      2.00000
     11       2.2077      2.00000
     12       3.1431      2.00000
     13       4.2435      2.00000
     14       5.3327      2.00000
     15       7.2358      2.00000
     16       9.2076      2.00000
     17       9.7849      2.00000
     18      11.2605      2.00000
     19      12.5499     -0.05771
     20      14.9791      0.00000
     21      16.1894      0.00000
     22      17.6114      0.00000
     23      18.6785      0.00000
     24      19.4072      0.00000
     25      20.0513      0.00000
     26      21.1160      0.00000
     27      21.8686      0.00000
     28      24.0246      0.00000

 k-point   9 :       0.3000    0.1000    0.0000
  band No.  band energies     occupation 
      1      -9.6922      2.00000
      2      -5.3892      2.00000
      3      -5.0148      2.00000
      4      -4.1292      2.00000
      5      -1.9783      2.00000
      6      -1.0881      2.00000
      7      -0.6682      2.00000
      8       0.0319      2.00000
      9       1.4641      2.00000
     10       2.7148      2.00000
     11       3.0021      2.00000
     12       3.2666      2.00000
     13       5.1535      2.00000
     14       6.0939      2.00000
     15       6.7368      2.00000
     16       8.0983      2.00000
     17       9.0385      2.00000
     18      12.3555      0.25942
     19      12.4934     -0.07052
     20      15.7577      0.00000
     21      17.5940      0.00000
     22      17.9277      0.00000
     23      19.4241      0.00000
     24      19.9205      0.00000
     25      20.9842      0.00000
     26      21.9869      0.00000
     27      23.6705      0.00000
     28      25.7326      0.00000

 k-point  10 :       0.4000    0.1000    0.0000
  band No.  band energies     occupation 
      1      -9.7670      2.00000
      2      -6.2303      2.00000
      3      -4.6080      2.00000
      4      -3.3493      2.00000
      5      -1.8846      2.00000
      6      -1.4580      2.00000
      7      -0.2891      2.00000
      8       0.3843      2.00000
      9       1.3920      2.00000
     10       2.2109      2.00000
     11       2.6553      2.00000
     12       4.6776      2.00000
     13       5.6845      2.00000
     14       6.3472      2.00000
     15       7.8825      2.00000
     16       8.6199      2.00000
     17       9.3091      2.00000
     18      12.5249     -0.06701
     19      14.0374      0.00000
     20      14.4787      0.00000
     21      15.6335      0.00000
     22      16.4997      0.00000
     23      17.8460      0.00000
     24      18.8317      0.00000
     25      21.7646      0.00000
     26      22.7574      0.00000
     27      24.4544      0.00000
     28      26.2701      0.00000

 k-point  11 :       0.5000    0.1000    0.0000
  band No.  band energies     occupation 
      1      -9.3650      2.00000
      2      -6.2596      2.00000
      3      -4.8684      2.00000
      4      -4.1217      2.00000
      5      -2.0247      2.00000
      6      -1.4840      2.00000
      7      -0.4316      2.00000
      8       1.3488      2.00000
      9       1.8310      2.00000
     10       2.3597      2.00000
     11       2.6808      2.00000
     12       4.6078      2.00000
     13       4.9555      2.00000
     14       5.8763      2.00000
     15       6.6969      2.00000
     16       7.6686      2.00000
     17       9.2945      2.00000
     18      11.6708      2.00029
     19      13.3158      0.00000
     20      14.0223      0.00000
     21      15.0012      0.00000
     22      16.0456      0.00000
     23      17.9632      0.00000
     24      20.0262      0.00000
     25      21.2458      0.00000
     26      22.2223      0.00000
     27      23.5186      0.00000
     28      27.2888      0.00000

 k-point  12 :      -0.4000    0.1000    0.0000
  band No.  band energies     occupation 
      1      -8.2361      2.00000
      2      -6.4370      2.00000
      3      -4.2316      2.00000
      4      -3.7209      2.00000
      5      -2.4363      2.00000
      6      -0.7331      2.00000
      7      -0.0916      2.00000
      8       1.1970      2.00000
      9       1.6922      2.00000
     10       2.5634      2.00000
     11       2.7553      2.00000
     12       4.8453      2.00000
     13       5.1327      2.00000
     14       5.9740      2.00000
     15       6.9375      2.00000
     16       7.9438      2.00000
     17       9.9054      2.00000
     18      10.7995      2.00000
     19      13.8262      0.00000
     20      14.5718      0.00000
     21      16.3063      0.00000
     22      16.8515      0.00000
     23      18.0294      0.00000
     24      18.4058      0.00000
     25      20.5487      0.00000
     26      22.1907      0.00000
     27      24.3534      0.00000
     28      26.2724      0.00000

 k-point  13 :      -0.3000    0.1000    0.0000
  band No.  band energies     occupation 
      1      -9.1601      2.00000
      2      -6.2690      2.00000
      3      -4.4806      2.00000
      4      -4.1451      2.00000
      5      -1.5816      2.00000
      6      -1.0923      2.00000
      7      -0.3743      2.00000
      8       0.2625      2.00000
      9       0.9208      2.00000
     10       2.0448      2.00000
     11       3.2188      2.00000
     12       4.4722      2.00000
     13       4.9745      2.00000
     14       6.0368      2.00000
     15       6.8705      2.00000
     16       8.2954      2.00000
     17      12.1687      1.66295
     18      12.5499     -0.05770
     19      13.6258      0.00000
     20      15.0560      0.00000
     21      16.5591      0.00000
     22      17.1727      0.00000
     23      18.5224      0.00000
     24      19.3205      0.00000
     25      20.1959      0.00000
     26      22.3783      0.00000
     27      24.9547      0.00000
     28      25.7484      0.00000

 k-point  14 :      -0.2000    0.1000    0.0000
  band No.  band energies     occupation 
      1     -10.3853      2.00000
      2      -5.5709      2.00000
      3      -4.4027      2.00000
      4      -3.2971      2.00000
      5      -1.5438      2.00000
      6      -0.9672      2.00000
      7      -0.5309      2.00000
      8      -0.2184      2.00000
      9       0.0664      2.00000
     10       2.4610      2.00000
     11       2.9081      2.00000
     12       4.2959      2.00000
     13       4.9324      2.00000
     14       5.9958      2.00000
     15       6.7241      2.00000
     16       8.0373      2.00000
     17       9.8014      2.00000
     18      12.2117      1.36007
     19      13.4854      0.00000
     20      14.9830      0.00000
     21      15.9524      0.00000
     22      16.6752      0.00000
     23      18.1799      0.00000
     24      19.0829      0.00000
     25      20.9424      0.00000
     26      21.9432      0.00000
     27      24.1870      0.00000
     28      25.4985      0.00000

 k-point  15 :      -0.1000    0.1000    0.0000
  band No.  band energies     occupation 
      1     -10.2987      2.00000
      2      -4.7009      2.00000
      3      -4.3164      2.00000
      4      -3.6899      2.00000
      5      -2.2970      2.00000
      6      -1.7874      2.00000
      7      -0.6847      2.00000
      8      -0.1883      2.00000
      9       0.3236      2.00000
     10       1.2463      2.00000
     11       2.8515      2.00000
     12       3.1700      2.00000
     13       3.6120      2.00000
     14       4.3811      2.00000
     15       7.3884      2.00000
     16       8.2598      2.00000
     17      10.1360      2.00000
     18      11.4829      2.00000
     19      13.7591      0.00000
     20      14.8115      0.00000
     21      15.9180      0.00000
     22      16.5702      0.00000
     23      17.8094      0.00000
     24      18.2716      0.00000
     25      19.6404      0.00000
     26      20.5860      0.00000
     27      22.0101      0.00000
     28      23.8866      0.00000

 k-point  16 :       0.2000    0.2000    0.0000
  band No.  band energies     occupation 
      1     -10.2757      2.00000
      2      -5.0623      2.00000
      3      -4.1761      2.00000
      4      -3.9161      2.00000
      5      -2.7642      2.00000
      6      -1.0845      2.00000
      7      -0.1631      2.00000
      8       0.0860      2.00000
      9       1.1753      2.00000
     10       1.8512      2.00000
     11       3.5947      2.00000
     12       3.9012      2.00000
     13       4.9323      2.00000
     14       5.9028      2.00000
     15       7.8682      2.00000
     16       9.3932      2.00000
     17      10.4788      2.00000
     18      12.3462      0.31209
     19      12.5024     -0.07088
     20      13.8629      0.00000
     21      15.7841      0.00000
     22      16.9779      0.00000
     23      18.8797      0.00000
     24      19.6888      0.00000
     25      21.2146      0.00000
     26      21.7008      0.00000
     27      23.8257      0.00000
     28      26.4486      0.00000

 k-point  17 :       0.3000    0.2000    0.0000
  band No.  band energies     occupation 
      1     -10.0421      2.00000
      2      -5.6485      2.00000
      3      -5.1069      2.00000
      4      -4.0793      2.00000
      5      -1.9221      2.00000
      6      -1.3748      2.00000
      7      -0.8096      2.00000
      8       0.2015      2.00000
      9       0.7959      2.00000
     10       1.1704      2.00000
     11       3.0325      2.00000
     12       3.8365      2.00000
     13       4.8007      2.00000
     14       5.7718      2.00000
     15       6.8313      2.00000
     16       7.7390      2.00000
     17       8.4251      2.00000
     18      11.6406      2.00012
     19      13.6199      0.00000
     20      14.4293      0.00000
     21      16.2789      0.00000
     22      17.8573      0.00000
     23      18.4566      0.00000
     24      19.9134      0.00000
     25      20.4526      0.00000
     26      21.6920      0.00000
     27      24.0246      0.00000
     28      25.0314      0.00000

 k-point  18 :       0.4000    0.2000    0.0000
  band No.  band energies     occupation 
      1      -9.5849      2.00000
      2      -6.3837      2.00000
      3      -5.0552      2.00000
      4      -4.6113      2.00000
      5      -2.0178      2.00000
      6      -1.1668      2.00000
      7      -0.8498      2.00000
      8       0.1068      2.00000
      9       1.1542      2.00000
     10       2.5078      2.00000
     11       3.7566      2.00000
     12       3.9497      2.00000
     13       4.5157      2.00000
     14       5.0726      2.00000
     15       5.9425      2.00000
     16       6.7680      2.00000
     17       8.3689      2.00000
     18      10.9280      2.00000
     19      12.5073     -0.07056
     20      13.7895      0.00000
     21      15.4228      0.00000
     22      16.9069      0.00000
     23      17.8638      0.00000
     24      19.0277      0.00000
     25      20.4242      0.00000
     26      22.4138      0.00000
     27      23.8723      0.00000
     28      25.2174      0.00000

 k-point  19 :       0.5000    0.2000    0.0000
  band No.  band energies     occupation 
      1      -9.6448      2.00000
      2      -6.5138      2.00000
      3      -5.0896      2.00000
      4      -4.5862      2.00000
      5      -2.2152      2.00000
      6      -0.8307      2.00000
      7      -0.0941      2.00000
      8       1.0795      2.00000
      9       1.8180      2.00000
     10       2.2164      2.00000
     11       3.5362      2.00000
     12       4.1029      2.00000
     13       5.3165      2.00000
     14       5.9225      2.00000
     15       7.2374      2.00000
     16       7.7021      2.00000
     17       8.6323      2.00000
     18      11.5204      2.00000
     19      13.3044      0.00000
     20      14.2286      0.00000
     21      15.2447      0.00000
     22      17.3331      0.00000
     23      18.3807      0.00000
     24      19.6832      0.00000
     25      20.7566      0.00000
     26      22.9136      0.00000
     27      24.7118      0.00000
     28      25.5246      0.00000

 k-point  20 :      -0.4000    0.2000    0.0000
  band No.  band energies     occupation 
      1      -8.9991      2.00000
      2      -6.6702      2.00000
      3      -5.5255      2.00000
      4      -4.5091      2.00000
      5      -2.0754      2.00000
      6      -1.1048      2.00000
      7      -0.3093      2.00000
      8       1.5312      2.00000
      9       2.0931      2.00000
     10       2.5538      2.00000
     11       3.1326      2.00000
     12       3.7850      2.00000
     13       4.6962      2.00000
     14       6.5879      2.00000
     15       7.5143      2.00000
     16       8.5848      2.00000
     17       9.4330      2.00000
     18      11.5080      2.00000
     19      12.6452     -0.01880
     20      13.2450      0.00000
     21      14.4003      0.00000
     22      15.5070      0.00000
     23      17.4919      0.00000
     24      18.4929      0.00000
     25      19.9932      0.00000
     26      21.6670      0.00000
     27      22.1528      0.00000
     28      23.9597      0.00000

 k-point  21 :      -0.3000    0.2000    0.0000
  band No.  band energies     occupation 
      1      -9.0937      2.00000
      2      -6.0707      2.00000
      3      -5.3913      2.00000
      4      -4.2605      2.00000
      5      -1.7769      2.00000
      6      -1.0449      2.00000
      7       0.0181      2.00000
      8       0.3442      2.00000
      9       2.5694      2.00000
     10       2.8323      2.00000
     11       2.9352      2.00000
     12       3.5903      2.00000
     13       5.2376      2.00000
     14       6.1516      2.00000
     15       6.8906      2.00000
     16       7.8362      2.00000
     17       9.8203      2.00000
     18      11.0822      2.00000
     19      11.9011      2.03109
     20      13.6881      0.00000
     21      14.8922      0.00000
     22      17.1256      0.00000
     23      17.6409      0.00000
     24      18.7359      0.00000
     25      21.0833      0.00000
     26      22.7342      0.00000
     27      24.2596      0.00000
     28      24.7934      0.00000

 k-point  22 :      -0.2000    0.2000    0.0000
  band No.  band energies     occupation 
      1     -10.0137      2.00000
      2      -5.9950      2.00000
      3      -5.2245      2.00000
      4      -3.9737      2.00000
      5      -2.0527      2.00000
      6      -1.1139      2.00000
      7      -0.7744      2.00000
      8      -0.2841      2.00000
      9       0.9371      2.00000
     10       2.6936      2.00000
     11       3.0975      2.00000
     12       3.9455      2.00000
     13       4.4721      2.00000
     14       5.6156      2.00000
     15       6.8632      2.00000
     16       8.6920      2.00000
     17      11.6174      2.00006
     18      12.2725      0.85610
     19      13.0378      0.00000
     20      14.1871      0.00000
     21      15.4381      0.00000
     22      16.3292      0.00000
     23      16.8985      0.00000
     24      18.7227      0.00000
     25      20.7515      0.00000
     26      21.3555      0.00000
     27      23.3513      0.00000
     28      25.8213      0.00000

 k-point  23 :       0.3000    0.3000    0.0000
  band No.  band energies     occupation 
      1      -9.2395      2.00000
      2      -5.6722      2.00000
      3      -4.6650      2.00000
      4      -4.0398      2.00000
      5      -2.5836      2.00000
      6      -1.9965      2.00000
      7       0.0401      2.00000
      8       0.9663      2.00000
      9       2.2025      2.00000
     10       2.8323      2.00000
     11       4.1057      2.00000
     12       4.7389      2.00000
     13       5.7659      2.00000
     14       6.9803      2.00000
     15       8.1334      2.00000
     16       9.3624      2.00000
     17      10.6251      2.00000
     18      12.2883      0.72597
     19      13.7520      0.00000
     20      14.6905      0.00000
     21      15.8042      0.00000
     22      16.0721      0.00000
     23      17.0887      0.00000
     24      18.7380      0.00000
     25      19.5059      0.00000
     26      22.0367      0.00000
     27      22.9804      0.00000
     28      24.9186      0.00000

 k-point  24 :       0.4000    0.3000    0.0000
  band No.  band energies     occupation 
      1      -9.0021      2.00000
      2      -6.3724      2.00000
      3      -5.3384      2.00000
      4      -4.3728      2.00000
      5      -2.7911      2.00000
      6      -2.0329      2.00000
      7       0.1448      2.00000
      8       1.6015      2.00000
      9       2.0362      2.00000
     10       2.4996      2.00000
     11       3.6145      2.00000
     12       4.1521      2.00000
     13       5.0799      2.00000
     14       5.4189      2.00000
     15       6.1217      2.00000
     16       8.2718      2.00000
     17       9.6958      2.00000
     18      10.6835      2.00000
     19      12.8311     -0.00036
     20      14.4871      0.00000
     21      15.8471      0.00000
     22      16.2749      0.00000
     23      17.3382      0.00000
     24      18.7220      0.00000
     25      20.5293      0.00000
     26      22.1430      0.00000
     27      22.7856      0.00000
     28      27.0689      0.00000

 k-point  25 :       0.5000    0.3000    0.0000
  band No.  band energies     occupation 
      1      -9.8593      2.00000
      2      -6.3905      2.00000
      3      -5.2652      2.00000
      4      -5.1412      2.00000
      5      -2.1714      2.00000
      6      -0.5183      2.00000
      7      -0.1672      2.00000
      8       0.9603      2.00000
      9       1.9920      2.00000
     10       2.7124      2.00000
     11       3.5780      2.00000
     12       4.3000      2.00000
     13       5.0613      2.00000
     14       5.5773      2.00000
     15       6.9061      2.00000
     16       7.8306      2.00000
     17       9.6089      2.00000
     18      11.6603      2.00021
     19      12.3445      0.32236
     20      13.4558      0.00000
     21      14.6386      0.00000
     22      16.5988      0.00000
     23      18.6450      0.00000
     24      19.6087      0.00000
     25      21.1296      0.00000
     26      21.8202      0.00000
     27      22.9070      0.00000
     28      25.3170      0.00000

 k-point  26 :      -0.4000    0.3000    0.0000
  band No.  band energies     occupation 
      1      -8.9039      2.00000
      2      -6.0634      2.00000
      3      -5.5919      2.00000
      4      -4.3765      2.00000
      5      -2.3367      2.00000
      6      -0.8002      2.00000
      7      -0.2300      2.00000
      8       0.5572      2.00000
      9       1.2998      2.00000
     10       1.9284      2.00000
     11       4.0644      2.00000
     12       4.5569      2.00000
     13       5.2902      2.00000
     14       6.2369      2.00000
     15       8.0536      2.00000
     16       9.2814      2.00000
     17       9.7456      2.00000
     18      12.1384      1.82624
     19      14.1627      0.00000
     20      15.1672      0.00000
     21      16.0606      0.00000
     22      17.2072      0.00000
     23      18.2932      0.00000
     24      20.7597      0.00000
     25      21.2008      0.00000
     26      22.9653      0.00000
     27      25.1279      0.00000
     28      27.1800      0.00000

 k-point  27 :      -0.3000    0.3000    0.0000
  band No.  band energies     occupation 
      1      -9.1337      2.00000
      2      -6.1983      2.00000
      3      -5.3215      2.00000
      4      -4.8202      2.00000
      5      -1.8068      2.00000
      6      -0.4444      2.00000
      7       0.3734      2.00000
      8       0.9779      2.00000
      9       1.6531      2.00000
     10       2.5729      2.00000
     11       3.9746      2.00000
     12       5.0493      2.00000
     13       5.6909      2.00000
     14       5.8267      2.00000
     15       8.6605      2.00000
     16       9.5308      2.00000
     17      11.5315      2.00000
     18      12.2101      1.37271
     19      12.9278     -0.00002
     20      13.9915      0.00000
     21      15.4076      0.00000
     22      16.3392      0.00000
     23      17.5669      0.00000
     24      18.7367      0.00000
     25      21.0667      0.00000
     26      22.3361      0.00000
     27      22.9488      0.00000
     28      25.6582      0.00000

 k-point  28 :       0.4000    0.4000    0.0000
  band No.  band energies     occupation 
      1      -8.0972      2.00000
      2      -5.9673      2.00000
      3      -5.0122      2.00000
      4      -4.7894      2.00000
      5      -3.0044      2.00000
      6      -1.6467      2.00000
      7       1.1227      2.00000
      8       1.4120      2.00000
      9       1.8657      2.00000
     10       2.7079      2.00000
     11       2.9806      2.00000
     12       4.3604      2.00000
     13       4.7223      2.00000
     14       5.7147      2.00000
     15       6.2540      2.00000
     16       7.0730      2.00000
     17       8.0385      2.00000
     18      11.3270      2.00000
     19      12.0957      1.97942
     20      14.7210      0.00000
     21      16.2247      0.00000
     22      17.4993      0.00000
     23      18.0071      0.00000
     24      18.9097      0.00000
     25      21.0919      0.00000
     26      21.8618      0.00000
     27      22.8235      0.00000
     28      26.4035      0.00000

 k-point  29 :       0.5000    0.4000    0.0000
  band No.  band energies     occupation 
      1      -8.4196      2.00000
      2      -5.8032      2.00000
      3      -5.2202      2.00000
      4      -4.8043      2.00000
      5      -2.6806      2.00000
      6      -2.5025      2.00000
      7       1.4262      2.00000
      8       2.3936      2.00000
      9       2.8613      2.00000
     10       3.1319      2.00000
     11       3.8296      2.00000
     12       4.4800      2.00000
     13       4.8927      2.00000
     14       5.6881      2.00000
     15       6.5072      2.00000
     16       8.3710      2.00000
     17      10.7777      2.00000
     18      12.4720     -0.06347
     19      13.1353      0.00000
     20      14.2515      0.00000
     21      14.7248      0.00000
     22      16.0903      0.00000
     23      17.3616      0.00000
     24      18.8998      0.00000
     25      19.1645      0.00000
     26      21.6092      0.00000
     27      24.0516      0.00000
     28      25.5923      0.00000

 k-point  30 :      -0.4000    0.4000    0.0000
  band No.  band energies     occupation 
      1      -8.9576      2.00000
      2      -6.6970      2.00000
      3      -5.5204      2.00000
      4      -4.9545      2.00000
      5      -2.3505      2.00000
      6      -1.0452      2.00000
      7       0.5215      2.00000
      8       1.2948      2.00000
      9       1.9070      2.00000
     10       2.6771      2.00000
     11       3.8703      2.00000
     12       4.4659      2.00000
     13       4.8986      2.00000
     14       5.6703      2.00000
     15       6.4928      2.00000
     16       8.0931      2.00000
     17       8.7091      2.00000
     18      10.0362      2.00000
     19      12.8914     -0.00007
     20      14.4660      0.00000
     21      15.1804      0.00000
     22      17.0004      0.00000
     23      18.9681      0.00000
     24      20.3013      0.00000
     25      21.5114      0.00000
     26      22.9691      0.00000
[...]
     19       7.6155      0.00000
     20       9.0436      0.00000
     21       9.4386      0.00000
     22       9.9632      0.00000
     23      10.6700      0.00000
     24      11.0788      0.00000
     25      11.6274      0.00000
     26      12.3953      0.00000
     27      12.7870      0.00000
     28      13.2599      0.00000

 k-point 107 :       0.5000    0.5000    0.3000
  band No.  band energies     occupation 
      1      -9.5424      2.00000
      2      -6.4812      2.00000
      3      -5.7352      2.00000
      4      -4.8683      2.00000
      5      -3.5681      2.00000
      6      -1.9809      2.00000
      7      -1.8228      2.00000
      8      -1.0890      2.00000
      9       0.3517      2.00000
     10       0.5134      2.00000
     11       0.9561      2.00000
     12       2.0540      2.00000
     13       2.7357      2.00000
     14       3.1276      2.00000
     15       3.5755      2.00000
     16       3.8205      2.00000
     17       4.0165      2.00000
     18       4.7692      2.00000
     19       8.3049      0.00000
     20       8.9979      0.00000
     21       9.6728      0.00000
     22      10.1115      0.00000
     23      10.1258      0.00000
     24      11.8276      0.00000
     25      12.3222      0.00000
     26      12.3755      0.00000
     27      13.2048      0.00000
     28      13.2910      0.00000

 k-point 108 :      -0.4000    0.5000    0.3000
  band No.  band energies     occupation 
      1      -9.4016      2.00000
      2      -6.4215      2.00000
      3      -6.1543      2.00000
      4      -5.2562      2.00000
      5      -3.2316      2.00000
      6      -2.1607      2.00000
      7      -1.2990      2.00000
      8      -0.8478      2.00000
      9      -0.1358      2.00000
     10       0.8475      2.00000
     11       1.1432      2.00000
     12       2.1978      2.00000
     13       2.9557      2.00000
     14       3.2377      2.00000
     15       3.4272      2.00000
     16       3.6811      2.00000
     17       4.2262      2.00000
     18       4.3403      2.00000
     19       8.0667      0.00000
     20       9.0506      0.00000
     21       9.5530      0.00000
     22       9.7110      0.00000
     23      10.4926      0.00000
     24      11.4939      0.00000
     25      12.0861      0.00000
     26      12.3778      0.00000
     27      12.7516      0.00000
     28      13.0390      0.00000

 k-point 109 :      -0.3000    0.5000    0.3000
  band No.  band energies     occupation 
      1      -9.2354      2.00000
      2      -6.5954      2.00000
      3      -6.2287      2.00000
      4      -5.7002      2.00000
      5      -2.4473      2.00000
      6      -2.3952      2.00000
      7      -1.4512      2.00000
      8      -0.9764      2.00000
      9       0.2083      2.00000
     10       0.9095      2.00000
     11       1.8521      2.00000
     12       2.2383      2.00000
     13       2.6460      2.00000
     14       3.0176      2.00000
     15       3.2845      2.00000
     16       3.8483      2.00000
     17       4.1795      2.00000
     18       4.3015      2.00000
     19       7.8338      0.00000
     20       8.8724      0.00000
     21       9.2759      0.00000
     22       9.8179      0.00000
     23      11.0770      0.00000
     24      11.1226      0.00000
     25      11.5410      0.00000
     26      12.3118      0.00000
     27      12.6607      0.00000
     28      12.8041      0.00000

 k-point 110 :      -0.4000   -0.4000    0.3000
  band No.  band energies     occupation 
      1      -9.3287      2.00000
      2      -6.5753      2.00000
      3      -6.2411      2.00000
      4      -5.0590      2.00000
      5      -3.7811      2.00000
      6      -1.4870      2.00000
      7      -1.0791      2.00000
      8      -1.0076      2.00000
      9      -0.0484      2.00000
     10       0.3424      2.00000
     11       1.5215      2.00000
     12       2.4034      2.00000
     13       3.1200      2.00000
     14       3.1338      2.00000
     15       3.3125      2.00000
     16       3.5338      2.00000
     17       4.1328      2.00000
     18       4.3865      2.00000
     19       7.7373      0.00000
     20       9.2767      0.00000
     21       9.4309      0.00000
     22      10.0873      0.00000
     23      10.1600      0.00000
     24      11.1804      0.00000
     25      12.0579      0.00000
     26      12.1826      0.00000
     27      13.1040      0.00000
     28      13.2179      0.00000

 k-point 111 :       0.4000    0.4000    0.4000
  band No.  band energies     occupation 
      1      -9.7612      2.00000
      2      -6.5638      2.00000
      3      -4.3651      2.00000
      4      -4.3651      2.00000
      5      -3.7709      2.00000
      6      -2.7610      2.00000
      7      -2.7610      2.00000
      8      -0.5760      2.00000
      9       0.0730      2.00000
     10       0.0730      2.00000
     11       0.5540      2.00000
     12       2.2787      2.00000
     13       2.9372      2.00000
     14       2.9613      2.00000
     15       2.9613      2.00000
     16       3.8325      2.00000
     17       3.8325      2.00000
     18       5.9949      1.96706
     19       8.4249      0.00000
     20       9.0604      0.00000
     21       9.0604      0.00000
     22      10.9398      0.00000
     23      10.9398      0.00000
     24      11.8713      0.00000
     25      12.2074      0.00000
     26      13.2839      0.00000
     27      13.2839      0.00000
     28      13.6455      0.00000

 k-point 112 :       0.5000    0.4000    0.4000
  band No.  band energies     occupation 
      1      -9.6762      2.00000
      2      -6.6081      2.00000
      3      -5.0437      2.00000
      4      -4.4715      2.00000
      5      -3.3796      2.00000
      6      -2.6708      2.00000
      7      -2.5661      2.00000
      8      -0.2556      2.00000
      9      -0.0540      2.00000
     10       0.0177      2.00000
     11       0.7923      2.00000
     12       2.1635      2.00000
     13       2.8400      2.00000
     14       3.0475      2.00000
     15       3.1128      2.00000
     16       3.7461      2.00000
     17       4.1329      2.00000
     18       5.6313      2.00151
     19       8.6643      0.00000
     20       8.8132      0.00000
     21       9.1076      0.00000
     22      10.6429      0.00000
     23      10.6724      0.00000
     24      11.7753      0.00000
     25      12.1006      0.00000
     26      12.9647      0.00000
     27      13.2379      0.00000
     28      13.6433      0.00000

 k-point 113 :      -0.4000    0.4000    0.4000
  band No.  band energies     occupation 
      1      -9.5215      2.00000
      2      -6.5134      2.00000
      3      -5.8537      2.00000
      4      -4.7749      2.00000
      5      -3.4987      2.00000
      6      -1.9915      2.00000
      7      -1.9322      2.00000
      8      -0.5349      2.00000
      9      -0.0984      2.00000
     10       0.4481      2.00000
     11       0.6018      2.00000
     12       2.3239      2.00000
     13       3.1010      2.00000
     14       3.1379      2.00000
     15       3.3146      2.00000
     16       3.7793      2.00000
     17       4.2051      2.00000
     18       4.7992      2.00000
     19       8.2612      0.00000
     20       9.1141      0.00000
     21       9.5276      0.00000
     22      10.1082      0.00000
     23      10.1628      0.00000
     24      11.9312      0.00000
     25      12.0431      0.00000
     26      12.1275      0.00000
     27      13.1961      0.00000
     28      13.2416      0.00000

 k-point 114 :       0.5000    0.5000    0.4000
  band No.  band energies     occupation 
      1      -9.6517      2.00000
      2      -6.6674      2.00000
      3      -4.9943      2.00000
      4      -4.5510      2.00000
      5      -3.3954      2.00000
      6      -2.7273      2.00000
      7      -2.5071      2.00000
      8      -0.2781      2.00000
      9      -0.1732      2.00000
     10       0.2746      2.00000
     11       0.9963      2.00000
     12       2.0451      2.00000
     13       2.7087      2.00000
     14       2.9342      2.00000
     15       3.1868      2.00000
     16       4.0186      2.00000
     17       4.0223      2.00000
     18       5.6427      2.00196
     19       8.6556      0.00000
     20       8.7549      0.00000
     21       9.0790      0.00000
     22      10.5437      0.00000
     23      10.7017      0.00000
     24      11.6750      0.00000
     25      12.1327      0.00000
     26      12.8889      0.00000
     27      13.2046      0.00000
     28      13.5952      0.00000

 k-point 115 :      -0.4000    0.5000    0.4000
  band No.  band energies     occupation 
      1      -9.5548      2.00000
      2      -6.5849      2.00000
      3      -5.5767      2.00000
      4      -4.8572      2.00000
      5      -3.0708      2.00000
      6      -2.7947      2.00000
      7      -1.8187      2.00000
      8      -0.4625      2.00000
      9      -0.0269      2.00000
     10       0.2975      2.00000
     11       0.8553      2.00000
     12       2.1646      2.00000
     13       2.8823      2.00000
     14       3.1411      2.00000
     15       3.3955      2.00000
     16       3.7823      2.00000
     17       4.1627      2.00000
     18       5.0371      2.00000
     19       8.4697      0.00000
     20       8.9866      0.00000
     21       9.2547      0.00000
     22      10.2330      0.00000
     23      10.3062      0.00000
     24      11.8299      0.00000
     25      12.0091      0.00000
     26      12.6252      0.00000
     27      12.9691      0.00000
     28      13.3005      0.00000

 k-point 116 :       0.5000    0.5000    0.5000
  band No.  band energies     occupation 
      1      -9.6895      2.00000
      2      -6.7384      2.00000
      3      -4.3749      2.00000
      4      -4.3749      2.00000
      5      -3.8142      2.00000
      6      -2.8056      2.00000
      7      -2.8056      2.00000
      8      -0.5985      2.00000
      9       0.2484      2.00000
     10       0.2484      2.00000
     11       1.1481      2.00000
     12       1.9408      2.00000
     13       2.6829      2.00000
     14       2.6829      2.00000
     15       2.9813      2.00000
     16       4.1095      2.00000
     17       4.1095      2.00000
     18       6.0334      1.82466
     19       8.5966      0.00000
     20       8.7882      0.00000
     21       8.7882      0.00000
     22      10.9591      0.00000
     23      10.9591      0.00000
     24      11.5154      0.00000
     25      12.0334      0.00000
     26      13.1688      0.00000
     27      13.1688      0.00000
     28      13.7241      0.00000


--------------------------------------------------------------------------------------------------------


 soft charge-density along one line, spin component           1
         0         1         2         3         4         5         6         7         8         9
 total charge-density along one line
 
 pseudopotential strength for first ion, spin component:           1
  6.160   9.359   0.003   0.012  -0.006   0.005   0.019  -0.009
  9.359  14.211   0.005   0.018  -0.009   0.008   0.029  -0.014
  0.003   0.005  -2.037   0.001   0.000  -3.427   0.001  -0.001
  0.012   0.018   0.001  -2.036  -0.001   0.001  -3.425  -0.002
 -0.006  -0.009   0.000  -0.001  -2.037  -0.001  -0.002  -3.426
  0.005   0.008  -3.427   0.001  -0.001  -5.563   0.002  -0.001
  0.019   0.029   0.001  -3.425  -0.002   0.002  -5.559  -0.003
 -0.009  -0.014  -0.001  -0.002  -3.426  -0.001  -0.003  -5.562
 total augmentation occupancy for first ion, spin component:           1
  3.771  -1.034   0.153   0.151  -0.264  -0.073  -0.112   0.126
 -1.034   0.306  -0.087  -0.163   0.150   0.032   0.065  -0.056
  0.153  -0.087   3.272   0.168  -0.144  -0.911  -0.037   0.028
  0.151  -0.163   0.168   3.826  -0.291  -0.038  -1.054   0.065
 -0.264   0.150  -0.144  -0.291   3.439   0.028   0.065  -0.944
 -0.073   0.032  -0.911  -0.038   0.028   0.260   0.009  -0.006
 -0.112   0.065  -0.037  -1.054   0.065   0.009   0.299  -0.016
  0.126  -0.056   0.028   0.065  -0.944  -0.006  -0.016   0.266


------------------------ aborting loop because EDIFF is reached ----------------------------------------


    CHARGE:  cpu time    0.17: real time    0.17
    FORLOC:  cpu time    0.00: real time    0.00
    FORNL :  cpu time    2.14: real time    2.14
    STRESS:  cpu time    6.27: real time    6.29
    FORCOR:  cpu time    0.03: real time    0.02
    FORHAR:  cpu time    0.00: real time    0.01
    MIXING:  cpu time    0.00: real time    0.00

  FORCE on cell =-STRESS in cart. coord.  units (eV):
  Direction    XX          YY          ZZ          XY          YZ          ZX
  --------------------------------------------------------------------------------------
  Alpha Z   115.01259   115.01259   115.01259
  Ewald    -324.62777  -324.62777  -369.30669     0.00000     0.00000     0.00000
  Hartree    41.89527    41.89527    27.04619     0.00000     0.00000     0.00000
  E(xc)    -117.74851  -117.74851  -118.09698     0.00000     0.00000     0.00000
  Local     -98.65910   -98.65910   -51.59272     0.00000     0.00000     0.00000
  n-local   -13.65452   -13.36860   -16.44317    -1.47347    -0.66405    -0.42073
  augment     0.88755     0.88755     0.78583     0.00000     0.00000     0.00000
  Kinetic   398.18187   395.31741   412.59447     7.70330     5.74047     2.02467
  Fock        0.00000     0.00000     0.00000     0.00000     0.00000     0.00000
  -------------------------------------------------------------------------------------
  Total      -0.00188    -0.00188    -0.00048     0.00000     0.00000     0.00000
  in kB      -0.03503    -0.03503    -0.00885     0.00000     0.00000     0.00000
  external pressure =       -0.03 kB  Pullay stress =        0.00 kB


 VOLUME and BASIS-vectors are now :
 -----------------------------------------------------------------------------
  energy-cutoff  :      318.61
  volume of cell :       86.13
      direct lattice vectors                 reciprocal lattice vectors
     2.441592380  1.409654018  4.170975440     0.204784387  0.118232321  0.079917357
    -2.441592380  1.409654018  4.170975440    -0.204784387  0.118232321  0.079917357
     0.000000000 -2.819308036  4.170975440     0.000000000 -0.236464642  0.079917357

  length of vectors
     5.034434817  5.034434817  5.034434816     0.249604309  0.249604309  0.249604309


 FORCES acting on ions
    electron-ion (+dipol)            ewald-force                    non-local-force                 convergence-correction
 -----------------------------------------------------------------------------------------------
   -.254E+02 0.147E+02 0.309E+02   0.276E+02 -.159E+02 -.357E+02   -.222E+01 0.128E+01 0.473E+01   0.274E-04 -.158E-04 0.123E-03
   0.365E-12 -.293E+02 0.309E+02   0.633E-14 0.319E+02 -.357E+02   -.895E-19 -.256E+01 0.473E+01   0.765E-13 0.316E-04 0.123E-03
   0.254E+02 0.147E+02 0.309E+02   -.276E+02 -.159E+02 -.357E+02   0.222E+01 0.128E+01 0.473E+01   -.274E-04 -.158E-04 0.123E-03
   -.254E+02 -.147E+02 -.309E+02   0.276E+02 0.159E+02 0.357E+02   -.222E+01 -.128E+01 -.473E+01   0.274E-04 0.158E-04 -.123E-03
   -.517E-12 0.293E+02 -.309E+02   -.167E-14 -.319E+02 0.357E+02   0.182E-17 0.256E+01 -.473E+01   -.783E-13 -.316E-04 -.123E-03
   0.254E+02 -.147E+02 -.309E+02   -.276E+02 0.159E+02 0.357E+02   0.222E+01 -.128E+01 -.473E+01   -.274E-04 0.158E-04 -.123E-03
   -.441E+02 0.254E+02 -.204E+02   0.430E+02 -.248E+02 0.206E+02   0.105E+01 -.608E+00 -.293E+00   0.459E-05 -.265E-05 -.204E-04
   -.752E-13 -.509E+02 -.204E+02   -.711E-14 0.497E+02 0.206E+02   0.139E-16 0.122E+01 -.293E+00   -.852E-14 0.530E-05 -.204E-04
   0.441E+02 0.254E+02 -.204E+02   -.430E+02 -.248E+02 0.206E+02   -.105E+01 -.608E+00 -.293E+00   -.459E-05 -.265E-05 -.204E-04
   -.441E+02 -.254E+02 0.204E+02   0.430E+02 0.248E+02 -.206E+02   0.105E+01 0.608E+00 0.293E+00   0.459E-05 0.265E-05 0.204E-04
   0.179E-12 0.509E+02 0.204E+02   0.222E-14 -.497E+02 -.206E+02   -.696E-17 -.122E+01 0.293E+00   -.213E-12 -.530E-05 0.204E-04
   0.441E+02 -.254E+02 0.204E+02   -.430E+02 0.248E+02 -.206E+02   -.105E+01 0.608E+00 0.293E+00   -.459E-05 0.265E-05 0.204E-04
 -----------------------------------------------------------------------------------------------
   0.797E-12 -.233E-12 -.152E-11   -.213E-13 -.355E-14 0.178E-13   0.222E-15 -.222E-15 -.183E-14   -.247E-12 0.732E-13 0.773E-12
 
 
 POSITION                                       TOTAL-FORCE (eV/Angst)
 -----------------------------------------------------------------------------------
     -1.57100      0.90702      2.81433         0.001663     -0.000960     -0.000682
      0.00000     -1.81404      2.81433         0.000000      0.001920     -0.000682
      1.57100      0.90702      2.81433        -0.001663     -0.000960     -0.000682
     -1.57100     -0.90702      9.69860         0.001663      0.000960      0.000682
      0.00000      1.81404      9.69860         0.000000     -0.001920      0.000682
      1.57100     -0.90702      9.69860        -0.001663      0.000960      0.000682
     -0.99756      0.57594      4.47494         0.000635     -0.000367      0.000103
      0.00000     -1.15188      4.47494         0.000000      0.000733      0.000103
      0.99756      0.57594      4.47494        -0.000635     -0.000367      0.000103
     -0.99756     -0.57594      8.03799         0.000635      0.000367     -0.000103
      0.00000      1.15188      8.03799         0.000000     -0.000733     -0.000103
      0.99756     -0.57594      8.03799        -0.000635      0.000367     -0.000103
 -----------------------------------------------------------------------------------
    total drift:                                0.000000      0.000000      0.000000


--------------------------------------------------------------------------------------------------------



  FREE ENERGIE OF THE ION-ELECTRON SYSTEM (eV)
  ---------------------------------------------------
  free  energy   TOTEN  =       -80.346476 eV

  energy  without entropy=      -80.346574  energy(sigma->0) =      -80.346509
 
 d Force =-0.2073593E-07[-0.332E-07,-0.827E-08]  d Energy =-0.2543202E-06 0.234E-06
 d Force =-0.2239415E-03[-0.224E-03,-0.224E-03]  d Ewald  =-0.6260663E-03 0.402E-03


--------------------------------------------------------------------------------------------------------


    POTLOK:  cpu time    0.03: real time    0.03


--------------------------------------------------------------------------------------------------------




--------------------------------------------------------------------------------------------------------


  
 reached required accuracy - stopping structural energy minimisation
     LOOP+:  cpu time   16.29: real time   16.38
    4ORBIT:  cpu time    0.00: real time    0.00

 total amount of memory used by VASP on root node    51023. kBytes
========================================================================

   base      :      30000. kBytes
   nonlr-proj:       2134. kBytes
   fftplans  :       1025. kBytes
   grid      :       1926. kBytes
   one-center:         36. kBytes
   wavefun   :      15902. kBytes
 
  
  
 General timing and accounting informations for this job:
 ========================================================
  
                  Total CPU time used (sec):      135.760
                            User time (sec):      135.240
                          System time (sec):        0.520
                         Elapsed time (sec):      136.635
  
                   Maximum memory used (kb):       75832.
                   Average memory used (kb):           0.
  
                          Minor page faults:        19296
                          Major page faults:            0
                 Voluntary context switches:          452
