 vasp.5.2.12 26May11 complex 
 executed on             LinuxIFC date 2012.05.25  10:19:02
 running on    4 nodes
 distr:  one band on    1 nodes,    4 groups


--------------------------------------------------------------------------------------------------------


 INCAR:
 POTCAR:    PAW_PBE B 06Sep2000                   
 POTCAR:    PAW_PBE B 06Sep2000                   
   VRHFIN =B: s2p1                                                              
   LEXCH  = PE                                                                  
   EATOM  =    71.1703 eV,    5.2309 Ry                                         
                                                                                
   TITEL  = PAW_PBE B 06Sep2000                                                 
   LULTRA =        F    use ultrasoft PP ?                                      
   IUNSCR =        1    unscreen: 0-lin 1-nonlin 2-no                           
   RPACOR =    1.200    partial core radius                                     
   POMASS =   10.811; ZVAL   =    3.000    mass and valenz                      
   RCORE  =    1.700    outmost cutoff radius                                   
   RWIGS  =    1.710; RWIGS  =    0.905    wigner-seitz radius (au A)           
   ENMAX  =  318.614; ENMIN  =  238.960 eV                                      
   ICORE  =        2    local potential                                         
   LCOR   =        T    correct aug charges                                     
   LPAW   =        T    paw PP                                                  
   EAUG   =  535.514                                                            
   DEXC   =    0.000                                                            
   RMAX   =    1.732    core radius for proj-oper                               
   RAUG   =    1.300    factor for augmentation sphere                          
   RDEP   =    1.757    radius for radial grids                                 
   RDEPT  =    1.436    core radius for aug-charge                              
                                                                                
   Atomic configuration                                                         
    4 entries                                                                   
     n  l   j            E        occ.                                          
     1  0  0.50      -180.5896   2.0000                                         
     2  0  0.50        -9.4431   2.0000                                         
     2  1  0.50        -3.6068   1.0000                                         
     3  2  1.50        -4.0817   0.0000                                         
   Description                                                                  
     l       E           TYP  RCUT    TYP  RCUT                                 
     0     -9.4430752     23  1.500                                             
     0      0.8675899     23  1.500                                             
     1     -3.6067955     23  1.700                                             
     1      6.1086146     23  1.700                                             
     2     -4.0817478      7  1.700                                             
  local pseudopotential read in
  partial core-charges read in
  partial kinetic energy density read in
  atomic valenz-charges read in
  non local Contribution for L=           0  read in
    real space projection operators read in
  non local Contribution for L=           0  read in
    real space projection operators read in
  non local Contribution for L=           1  read in
    real space projection operators read in
  non local Contribution for L=           1  read in
    real space projection operators read in
    PAW grid and wavefunctions read in
 
   number of l-projection  operators is LMAX  =           4
   number of lm-projection operators is LMMAX =           8
 
 Optimization of the real space projectors (new method)

 maximal supplied QI-value         = 22.11
 optimisation between [QCUT,QGAM] = [  9.07, 18.13] = [ 23.01, 92.04] Ry 
 Optimized for a Real-space Cutoff    1.46 Angstroem

   l    n(q)    QCUT    max X(q) W(low)/X(q) W(high)/X(q)  e(spline) 
   0      8     9.065    53.033    0.38E-03    0.70E-03    0.20E-06
   0      8     9.065    34.740    0.38E-03    0.69E-03    0.20E-06
   1      7     9.065    30.949    0.34E-03    0.21E-03    0.23E-06
   1      7     9.065    19.518    0.31E-03    0.17E-03    0.22E-06
  PAW_PBE B 06Sep2000                   :
 energy of atom  1       EATOM=  -71.1703
 kinetic energy error for atom=    0.0071 (will be added to EATOM!!)
 
 
 POSCAR: XYZ: B28                                
  positions in direct lattice
  No initial velocities read in
 exchange correlation table for  LEXCH =        8
   RHO(1)=    0.500       N(1)  =     2000
   RHO(2)=  100.500       N(2)  =     4000
 


--------------------------------------------------------------------------------------------------------


 ion  position               nearest neighbor table
   1  0.170  0.521  0.000-  21 1.67   2 1.73  11 1.90   8 1.90  19 2.05  16 2.05
   2  0.830  0.479  0.000-  22 1.67   1 1.73  12 1.90   7 1.90  20 2.05  15 2.05
   3  0.670  0.979  0.500-  23 1.67   4 1.73   9 1.90   6 1.90  17 2.05  14 2.05
   4  0.330  0.021  0.500-  24 1.67   3 1.73  10 1.90   5 1.90  18 2.05  13 2.05
   5  0.161  0.281  0.374-  10 1.74  28 1.78  23 1.81  13 1.82  15 1.83  16 1.84   4 1.90
   6  0.839  0.719  0.374-   9 1.74  27 1.78  24 1.81  14 1.82  16 1.83  15 1.84   3 1.90
   7  0.661  0.219  0.126-  12 1.74  26 1.78  21 1.81  15 1.82  13 1.83  14 1.84   2 1.90
   8  0.339  0.781  0.126-  11 1.74  25 1.78  22 1.81  16 1.82  14 1.83  13 1.84   1 1.90
   9  0.839  0.719  0.626-   6 1.74  27 1.78  24 1.81  17 1.82  19 1.83  20 1.84   3 1.90
  10  0.161  0.281  0.626-   5 1.74  28 1.78  23 1.81  18 1.82  20 1.83  19 1.84   4 1.90
  11  0.339  0.781  0.874-   8 1.74  25 1.78  22 1.81  19 1.82  17 1.83  18 1.84   1 1.90
  12  0.661  0.219  0.874-   7 1.74  26 1.78  21 1.81  20 1.82  18 1.83  17 1.84   2 1.90
  13  0.347  0.092  0.209-  21 1.76  25 1.78   5 1.82   7 1.83   8 1.84  14 1.86   4 2.05
  14  0.653  0.908  0.209-  22 1.76  26 1.78   6 1.82   8 1.83   7 1.84  13 1.86   3 2.05
  15  0.847  0.408  0.291-  23 1.76  27 1.78   7 1.82   5 1.83   6 1.84  16 1.86   2 2.05
  16  0.153  0.592  0.291-  24 1.76  28 1.78   8 1.82   6 1.83   5 1.84  15 1.86   1 2.05
  17  0.653  0.908  0.791-  22 1.76  26 1.78   9 1.82  11 1.83  12 1.84  18 1.86   3 2.05
  18  0.347  0.092  0.791-  21 1.76  25 1.78  10 1.82  12 1.83  11 1.84  17 1.86   4 2.05
  19  0.153  0.592  0.709-  24 1.76  28 1.78  11 1.82   9 1.83  10 1.84  20 1.86   1 2.05
  20  0.847  0.408  0.709-  23 1.76  27 1.78  12 1.82  10 1.83   9 1.84  19 1.86   2 2.05
  21  0.352  0.271  0.000-   1 1.67  25 1.75  18 1.76  13 1.76  12 1.81   7 1.81
  22  0.648  0.729  0.000-   2 1.67  26 1.75  17 1.76  14 1.76  11 1.81   8 1.81
  23  0.852  0.229  0.500-   3 1.67  27 1.75  20 1.76  15 1.76  10 1.81   5 1.81
  24  0.148  0.771  0.500-   4 1.67  28 1.75  19 1.76  16 1.76   9 1.81   6 1.81
  25  0.164  0.008  0.000-  26 1.66  21 1.75   8 1.78  11 1.78  13 1.78  18 1.78
  26  0.836  0.992  0.000-  25 1.66  22 1.75   7 1.78  12 1.78  14 1.78  17 1.78
  27  0.664  0.492  0.500-  28 1.66  23 1.75   6 1.78   9 1.78  15 1.78  20 1.78
  28  0.336  0.508  0.500-  27 1.66  24 1.75   5 1.78  10 1.78  16 1.78  19 1.78
 
  LATTYP: Found a simple orthorhombic cell.
 ALAT       =     5.0430000000
 B/A-ratio  =     1.1128296649
 C/A-ratio  =     1.3723973825
  
  Lattice vectors:
  
 A1 = (   5.0430000000,   0.0000000000,   0.0000000000)
 A2 = (   0.0000000000,   5.6120000000,   0.0000000000)
 A3 = (   0.0000000000,   0.0000000000,   6.9210000000)
 Subroutine PRICEL returns:
 Original cell was already a primitive cell.
 

Analysis of symmetry for initial positions (statically):

 Routine SETGRP: Setting up the symmetry group for a 
 simple orthorhombic supercell.


 Subroutine GETGRP returns: Found  8 space group operations
 (whereof  4 operations were pure point group operations)
 out of a pool of  8 trial point group operations.


The static configuration has the point symmetry C_2h.
 The point group associated with its full space group is D_2h.

Analysis of symmetry for dynamics (positions and initial velocities):

 Subroutine DYNSYM returns: Found  8 space group operations
 (whereof  4 operations were pure point group operations)
 out of a pool of  8 trial space group operations
 (whereof  4 operations were pure point group operations)
 and found also     1 'primitive' translations


The dynamic configuration has the point symmetry C_2h.
 The point group associated with its full space group is D_2h.
 
 
 KPOINTS: Automatic mesh                          

Automatic generation of k-mesh.
 
 Subroutine IBZKPT returns following result:
 ===========================================
 
 Found     18 irreducible k-points:
 
 Following reciprocal coordinates:
            Coordinates               Weight
  0.083333  0.000000  0.125000      4.000000
  0.250000  0.000000  0.125000      4.000000
  0.416667  0.000000  0.125000      4.000000
  0.083333  0.200000  0.125000      8.000000
  0.250000  0.200000  0.125000      8.000000
  0.416667  0.200000  0.125000      8.000000
  0.083333  0.400000  0.125000      8.000000
  0.250000  0.400000  0.125000      8.000000
  0.416667  0.400000  0.125000      8.000000
  0.083333  0.000000  0.375000      4.000000
  0.250000  0.000000  0.375000      4.000000
  0.416667  0.000000  0.375000      4.000000
  0.083333  0.200000  0.375000      8.000000
  0.250000  0.200000  0.375000      8.000000
  0.416667  0.200000  0.375000      8.000000
  0.083333  0.400000  0.375000      8.000000
  0.250000  0.400000  0.375000      8.000000
  0.416667  0.400000  0.375000      8.000000
 
 Following cartesian coordinates:
            Coordinates               Weight
  0.016525  0.000000  0.018061      4.000000
  0.049574  0.000000  0.018061      4.000000
  0.082623  0.000000  0.018061      4.000000
  0.016525  0.035638  0.018061      8.000000
  0.049574  0.035638  0.018061      8.000000
  0.082623  0.035638  0.018061      8.000000
  0.016525  0.071276  0.018061      8.000000
  0.049574  0.071276  0.018061      8.000000
  0.082623  0.071276  0.018061      8.000000
  0.016525  0.000000  0.054183      4.000000
  0.049574  0.000000  0.054183      4.000000
  0.082623  0.000000  0.054183      4.000000
  0.016525  0.035638  0.054183      8.000000
  0.049574  0.035638  0.054183      8.000000
  0.082623  0.035638  0.054183      8.000000
  0.016525  0.071276  0.054183      8.000000
  0.049574  0.071276  0.054183      8.000000
  0.082623  0.071276  0.054183      8.000000
 


--------------------------------------------------------------------------------------------------------




 Dimension of arrays:
   k-points           NKPTS =     18   k-points in BZ     NKDIM =     18   number of bands    NBANDS=     60
   number of dos      NEDOS =    301   number of ions     NIONS =     28
   non local maximal  LDIM  =      4   non local SUM 2l+1 LMDIM =      8
   total plane-waves  NPLWV =  20160
   max r-space proj   IRMAX =   1386   max aug-charges    IRDMAX=   1804
   dimension x,y,z NGX =    24 NGY =   28 NGZ =   30
   dimension x,y,z NGXF=    48 NGYF=   56 NGZF=   60
   support grid    NGXF=    48 NGYF=   56 NGZF=   60
   ions per type =              28
 NGX,Y,Z   is equivalent  to a cutoff of   7.91,  8.29,  7.21 a.u.
 NGXF,Y,Z  is equivalent  to a cutoff of  15.82, 16.59, 14.41 a.u.


 I would recommend the setting:
   dimension x,y,z NGX =    22 NGY =   25 NGZ =   30
 SYSTEM =  B28                                     
 POSCAR =  XYZ: B28                                

 Startparameter for this run:
   NWRITE =      2    write-flag & timer
   PREC   = normal    normal or accurate (medium, high low for compatibility)
   ISTART =      0    job   : 0-new  1-cont  2-samecut
   ICHARG =      2    charge: 1-file 2-atom 10-const
   ISPIN  =      1    spin polarized calculation?
   LNONCOLLINEAR =      F non collinear calculations
   LSORBIT =      F    spin-orbit coupling
   INIWAV =      1    electr: 0-lowe 1-rand  2-diag
   LASPH  =      F    aspherical Exc in radial PAW
   METAGGA=      F    non-selfconsistent MetaGGA calc.

 Electronic Relaxation 1
   ENCUT  =  318.6 eV  23.42 Ry    4.84 a.u.   7.34  8.17 10.07*2*pi/ulx,y,z
   ENINI  =  318.6     initial cutoff
   ENAUG  =  535.5 eV  augmentation charge cutoff
   NELM   =     40;   NELMIN=  2; NELMDL=  0     # of ELM steps 
   EDIFF  = 0.1E-05   stopping-criterion for ELM
   LREAL  =      T    real-space projection
   LCOMPAT=      F    compatible to vasp.4.4
   GGA_COMPAT  = T    GGA compatible to vasp.4.4-vasp.4.6
   LMAXPAW     = -100 max onsite density
   LMAXMIX     =    2 max onsite mixed and CHGCAR
   VOSKOWN=      0    Vosko Wilk Nusair interpolation
   ROPT   =   -0.00050
 Ionic relaxation
   EDIFFG = 0.1E-04   stopping-criterion for IOM
   NSW    =     10    number of steps for IOM
   NBLOCK =      1;   KBLOCK =     10    inner block; outer block 
   IBRION =      2    ionic relax: 0-MD 1-quasi-New 2-CG
   NFREE  =      1    steps in history (QN), initial steepest desc. (CG)
   ISIF   =      3    stress and relaxation
   IWAVPR =     11    prediction:  0-non 1-charg 2-wave 3-comb
   ISYM   =      2    0-nonsym 1-usesym 2-fastsym
   LCORR  =      T    Harris-Foulkes like correction to forces

   POTIM  = 0.2500    time-step for ionic-motion
   TEIN   =    0.0    initial temperature
   TEBEG  =    0.0;   TEEND  =   0.0 temperature during run
   SMASS  =  -3.00    Nose mass-parameter (am)
   estimated Nose-frequenzy (Omega)   =  0.10E-29 period in steps =****** mass=  -0.581E-27a.u.
   SCALEE = 1.0000    scale energy and forces
   NPACO  =    256;   APACO  = 16.0  distance and # of slots for P.C.
   PSTRESS=    0.0 pullay stress

  Mass of Ions in am
   POMASS =  10.81
  Ionic Valenz
   ZVAL   =   3.00
  Atomic Wigner-Seitz radii
   RWIGS  =  -1.00
  virtual crystal weights 
   VCA    =   1.00
   NELECT =      84.0000    total number of electrons
   NUPDOWN=      -1.0000    fix difference up-down

 DOS related values:
   EMIN   =  10.00;   EMAX   =-10.00  energy-range for DOS
   EFERMI =   0.00
   ISMEAR =     1;   SIGMA  =   0.20  broadening in eV -4-tet -1-fermi 0-gaus

 Electronic relaxation 2 (details)
   IALGO  =     38    algorithm
   LDIAG  =      T    sub-space diagonalisation (order eigenvalues)
   LSUBROT=      T    optimize rotation matrix (better conditioning)
   TURBO    =      0    0=normal 1=particle mesh
   IRESTART =      0    0=no restart 2=restart with 2 vectors
   NREBOOT  =      0    no. of reboots
   NMIN     =      0    reboot dimension
   EREF     =   0.00    reference energy to select bands
   IMIX   =      4    mixing-type and parameters
     AMIX     =   0.40;   BMIX     =  1.00
     AMIX_MAG =   1.60;   BMIX_MAG =  1.00
     AMIN     =   0.10
     WC   =   100.;   INIMIX=   1;  MIXPRE=   1

 Intra band minimization:
   WEIMIN = 0.0010     energy-eigenvalue tresh-hold
   EBREAK =  0.44E-08  absolut break condition
   DEPER  =   0.30     relativ break condition  

   TIME   =   0.40     timestep for ELM

  volume/ion in A,a.u.               =       7.00        47.21
  Fermi-wavevector in a.u.,A,eV,Ry     =   1.234552  2.332965 20.736897  1.524119
  Thomas-Fermi vector in A             =   2.369238
 
 Write flags
   LWAVE  =      F    write WAVECAR
   LCHARG =      F    write CHGCAR
   LVTOT  =      F    write LOCPOT, total local potential
   LVHAR  =      F    write LOCPOT, Hartree potential only
   LELF   =      F    write electronic localiz. function (ELF)
   LORBIT =      0    0 simple, 1 ext, 2 COOP (PROOUT)


 Dipole corrections
   LMONO  =      F    monopole corrections only (constant potential shift)
   LDIPOL =      F    correct potential (dipole corrections)
   IDIPOL =      0    1-x, 2-y, 3-z, 4-all directions 
   EPSILON=  1.0000000 bulk dielectric constant

 Exchange correlation treatment:
   GGA     =    --    GGA type
   LEXCH   =     8    internal setting for exchange type
   VOSKOWN=      0    Vosko Wilk Nusair interpolation
   LHFCALC =     F    Hartree Fock is set to
   LHFONE  =     F    Hartree Fock one center treatment
   AEXX    =    0.0000 exact exchange contribution

 Linear response parameters
   LEPSILON=     F    determine dielectric tensor
   LRPA    =     F    only Hartree local field effects (RPA)
   LNABLA  =     F    use nabla operator in PAW spheres
   LVEL    =     F    velocity operator in full k-point grid
   LINTERFAST=   F  fast interpolation
   KINTER  =     0    interpolate to denser k-point grid
   CSHIFT  =0.1000    complex shift for real part using Kramers Kronig
   OMEGAMAX=  -1.0    maximum frequency
   RTIME   =    0.100 relaxation time in fs

 Orbital magnetization related:
   ORBITALMAG=     F  switch on orbital magnetization
   LCHIMAG   =     F  perturbation theory with respect to B field
   DQ        =  0.001000  dq finite difference perturbation B field



--------------------------------------------------------------------------------------------------------


 conjugate gradient relaxation of ions
 charge density and potential will be updated during run
 non-spin polarized calculation
 Variant of blocked Davidson
 Davidson routine will perform the subspace rotation
 perform sub-space diagonalisation
    after iterative eigenvector-optimisation
 modified Broyden-mixing scheme, WC =      100.0
 initial mixing is a Kerker type mixing with AMIX =  0.4000 and BMIX =      1.0000
 Hartree-type preconditioning will be used
 using additional bands           18
 real space projection scheme for non local part
 use partial core corrections
 calculate Harris-corrections to forces 
   (improved forces if not selfconsistent)
 use gradient corrections 
 use of overlap-Matrix (Vanderbilt PP)
 Methfessel and Paxton  Order N= 1 SIGMA  =   0.20


--------------------------------------------------------------------------------------------------------


  energy-cutoff  :      318.61
  volume of cell :      195.87
      direct lattice vectors                 reciprocal lattice vectors
     5.043000000  0.000000000  0.000000000     0.198294666  0.000000000  0.000000000
     0.000000000  5.612000000  0.000000000     0.000000000  0.178189594  0.000000000
     0.000000000  0.000000000  6.921000000     0.000000000  0.000000000  0.144487791

  length of vectors
     5.043000000  5.612000000  6.921000000     0.198294666  0.178189594  0.144487791


 
 k-points in units of 2pi/SCALE and weight: Automatic mesh                          
   0.01652456  0.00000000  0.01806097       0.033
   0.04957367  0.00000000  0.01806097       0.033
   0.08262278  0.00000000  0.01806097       0.033
   0.01652456  0.03563792  0.01806097       0.067
   0.04957367  0.03563792  0.01806097       0.067
   0.08262278  0.03563792  0.01806097       0.067
   0.01652456  0.07127584  0.01806097       0.067
   0.04957367  0.07127584  0.01806097       0.067
   0.08262278  0.07127584  0.01806097       0.067
   0.01652456  0.00000000  0.05418292       0.033
   0.04957367  0.00000000  0.05418292       0.033
   0.08262278  0.00000000  0.05418292       0.033
   0.01652456  0.03563792  0.05418292       0.067
   0.04957367  0.03563792  0.05418292       0.067
   0.08262278  0.03563792  0.05418292       0.067
   0.01652456  0.07127584  0.05418292       0.067
   0.04957367  0.07127584  0.05418292       0.067
   0.08262278  0.07127584  0.05418292       0.067
 
 k-points in reciprocal lattice and weights: Automatic mesh                          
   0.08333333  0.00000000  0.12500000       0.033
   0.25000000  0.00000000  0.12500000       0.033
   0.41666667  0.00000000  0.12500000       0.033
   0.08333333  0.20000000  0.12500000       0.067
   0.25000000  0.20000000  0.12500000       0.067
   0.41666667  0.20000000  0.12500000       0.067
   0.08333333  0.40000000  0.12500000       0.067
   0.25000000  0.40000000  0.12500000       0.067
   0.41666667  0.40000000  0.12500000       0.067
   0.08333333  0.00000000  0.37500000       0.033
   0.25000000  0.00000000  0.37500000       0.033
   0.41666667  0.00000000  0.37500000       0.033
   0.08333333  0.20000000  0.37500000       0.067
   0.25000000  0.20000000  0.37500000       0.067
   0.41666667  0.20000000  0.37500000       0.067
   0.08333333  0.40000000  0.37500000       0.067
   0.25000000  0.40000000  0.37500000       0.067
   0.41666667  0.40000000  0.37500000       0.067
 
 position of ions in fractional coordinates (direct lattice) 
   0.17020000  0.52060000  0.00000000
   0.82980000  0.47940000  0.00000000
   0.67020000  0.97940000  0.50000000
   0.32980000  0.02060000  0.50000000
   0.16060000  0.28100000  0.37430000
   0.83940000  0.71900000  0.37430000
   0.66060000  0.21900000  0.12570000
   0.33940000  0.78100000  0.12570000
   0.83940000  0.71900000  0.62570000
   0.16060000  0.28100000  0.62570000
   0.33940000  0.78100000  0.87430000
   0.66060000  0.21900000  0.87430000
   0.34720000  0.09240000  0.20930000
   0.65280000  0.90760000  0.20930000
   0.84720000  0.40760000  0.29070000
   0.15280000  0.59240000  0.29070000
   0.65280000  0.90760000  0.79070000
   0.34720000  0.09240000  0.79070000
   0.15280000  0.59240000  0.70930000
   0.84720000  0.40760000  0.70930000
   0.35200000  0.27110000  0.00000000
   0.64800000  0.72890000  0.00000000
   0.85200000  0.22890000  0.50000000
   0.14800000  0.77110000  0.50000000
   0.16440000  0.00800000  0.00000000
   0.83560000  0.99200000  0.00000000
   0.66440000  0.49200000  0.50000000
   0.33560000  0.50800000  0.50000000
 
 position of ions in cartesian coordinates  (Angst):
   0.85831860  2.92160720  0.00000000
   4.18468140  2.69039280  0.00000000
   3.37981860  5.49639280  3.46050000
   1.66318140  0.11560720  3.46050000
   0.80990580  1.57697200  2.59053030
   4.23309420  4.03502800  2.59053030
   3.33140580  1.22902800  0.86996970
   1.71159420  4.38297200  0.86996970
   4.23309420  4.03502800  4.33046970
   0.80990580  1.57697200  4.33046970
   1.71159420  4.38297200  6.05103030
   3.33140580  1.22902800  6.05103030
   1.75092960  0.51854880  1.44856530
   3.29207040  5.09345120  1.44856530
   4.27242960  2.28745120  2.01193470
   0.77057040  3.32454880  2.01193470
   3.29207040  5.09345120  5.47243470
   1.75092960  0.51854880  5.47243470
   0.77057040  3.32454880  4.90906530
   4.27242960  2.28745120  4.90906530
   1.77513600  1.52141320  0.00000000
   3.26786400  4.09058680  0.00000000
   4.29663600  1.28458680  3.46050000
   0.74636400  4.32741320  3.46050000
   0.82906920  0.04489600  0.00000000
   4.21393080  5.56710400  0.00000000
   3.35056920  2.76110400  3.46050000
   1.69243080  2.85089600  3.46050000
 


--------------------------------------------------------------------------------------------------------


 k-point  1 :  0.08330.00000.1250  plane waves:    2531
 k-point  2 :  0.25000.00000.1250  plane waves:    2521
 k-point  3 :  0.41670.00000.1250  plane waves:    2524
 k-point  4 :  0.08330.20000.1250  plane waves:    2530
 k-point  5 :  0.25000.20000.1250  plane waves:    2523
 k-point  6 :  0.41670.20000.1250  plane waves:    2524
 k-point  7 :  0.08330.40000.1250  plane waves:    2547
 k-point  8 :  0.25000.40000.1250  plane waves:    2538
 k-point  9 :  0.41670.40000.1250  plane waves:    2516
 k-point 10 :  0.08330.00000.3750  plane waves:    2528
 k-point 11 :  0.25000.00000.3750  plane waves:    2534
 k-point 12 :  0.41670.00000.3750  plane waves:    2540
 k-point 13 :  0.08330.20000.3750  plane waves:    2535
 k-point 14 :  0.25000.20000.3750  plane waves:    2531
 k-point 15 :  0.41670.20000.3750  plane waves:    2530
 k-point 16 :  0.08330.40000.3750  plane waves:    2533
 k-point 17 :  0.25000.40000.3750  plane waves:    2528
 k-point 18 :  0.41670.40000.3750  plane waves:    2532

 maximum and minimum number of plane-waves per node :      2547     2516

 maximum number of plane-waves:      2547
 maximum index in each direction: 
   IXMAX=    7   IYMAX=    8   IZMAX=    9
   IXMIN=   -7   IYMIN=   -8   IZMIN=  -10

 WARNING: aliasing errors must be expected set NGX to  30 to avoid them
 WARNING: aliasing errors must be expected set NGY to  34 to avoid them
 WARNING: aliasing errors must be expected set NGZ to  40 to avoid them
 aliasing errors are usually negligible using standard VASP settings
 and one can safely disregard these warnings

 serial   3D FFT for wavefunctions
 parallel 3D FFT for charge:
    minimum data exchange during FFTs selected (reduces bandwidth)


 total amount of memory used by VASP on root node    49529. kBytes
========================================================================

   base      :      30000. kBytes
   nonlr-proj:       3196. kBytes
   fftplans  :       1477. kBytes
   grid      :       2795. kBytes
   one-center:         86. kBytes
   wavefun   :      11975. kBytes
 
 Broyden mixing: mesh for mixing (old mesh)
   NGX = 15   NGY = 17   NGZ = 21
  (NGX  = 48   NGY  = 56   NGZ  = 60)
  gives a total of   5355 points

 initial charge density was supplied:
 charge density of overlapping atoms calculated
 number of electron      84.0000000 magnetization 
 keeping initial charge density in first step


--------------------------------------------------------------------------------------------------------


 Maximum index for non-local projection operator         1307
 Maximum index for augmentation-charges          387 (set IRDMAX)


--------------------------------------------------------------------------------------------------------


 First call to EWALD:  gamma=   0.305
 Maximum number of real-space cells 3x 3x 2
 Maximum number of reciprocal cells 2x 3x 3

    FEWALD:  cpu time    0.00: real time    0.00


----------------------------------------- Iteration    1(   1)  ---------------------------------------


    POTLOK:  cpu time    0.03: real time    0.04
    SETDIJ:  cpu time    0.01: real time    0.01
     EDDAV:  cpu time    3.08: real time    3.08
       DOS:  cpu time    0.00: real time    0.00
    --------------------------------------------
      LOOP:  cpu time    3.13: real time    3.14

 eigenvalue-minimisations  :  2160
 total energy-change (2. order) : 0.9764152E+02  (-0.2851044E+04)
 number of electron      84.0000000 magnetization 
 augmentation part       84.0000000 magnetization 

 Free energy of the ion-electron system (eV)
  ---------------------------------------------------
  alpha Z        PSCENC =       275.35823565
  Ewald energy   TEWEN  =     -2486.95950226
  -1/2 Hartree   DENC   =      -121.48696496
  -exchange  EXHF       =         0.00000000
  -V(xc)+E(xc)   XCENC  =       204.13585027
  PAW double counting   =      1217.99623415    -1194.04727563
  entropy T*S    EENTRO =        -0.00482867
  eigenvalues    EBANDS =       210.08126669
  atomic energy  EATOM  =      1992.56850112
  ---------------------------------------------------
  free energy    TOTEN  =        97.64151637 eV

  energy without entropy =       97.64634504  energy(sigma->0) =       97.64312592


--------------------------------------------------------------------------------------------------------


 E-fermi :  13.1822     XC(G=0): -12.0863     alpha+bet :-15.8659


 k-point   1 :       0.0833    0.0000    0.1250
  band No.  band energies     occupation 
      1      -9.9624      2.00000
      2      -8.1661      2.00000
      3      -5.6420      2.00000
      4      -5.2660      2.00000
      5      -4.9032      2.00000
      6      -4.4088      2.00000
      7      -4.1396      2.00000
      8      -3.6599      2.00000
      9      -3.2068      2.00000
     10      -2.5629      2.00000
     11      -2.2068      2.00000
     12      -1.0438      2.00000
     13      -0.8107      2.00000
     14      -0.4237      2.00000
     15      -0.1395      2.00000
     16       0.1700      2.00000
     17       0.4712      2.00000
     18       1.0713      2.00000
     19       1.4147      2.00000
     20       1.9298      2.00000
     21       2.3532      2.00000
     22       2.6219      2.00000
     23       3.0202      2.00000
     24       3.4536      2.00000
     25       3.8906      2.00000
     26       4.4819      2.00000
     27       4.6038      2.00000
     28       4.9590      2.00000
     29       5.2326      2.00000
     30       5.6214      2.00000
     31       6.2989      2.00000
     32       6.3462      2.00000
     33       7.4662      2.00000
     34       7.7020      2.00000
     35       7.9425      2.00000
     36       8.6240      2.00000
     37       9.4631      2.00000
     38      10.2210      2.00000
     39      11.0851      2.00000
     40      11.7750      2.00000
     41      12.4816      2.00001
     42      12.9297      2.07049
     43      13.8086     -0.00009
     44      14.0343      0.00000
     45      15.0315      0.00000
     46      15.3761      0.00000
     47      15.6588      0.00000
     48      16.7328      0.00000
     49      17.2861      0.00000
     50      17.6749      0.00000
     51      18.2406      0.00000
     52      18.7106      0.00000
     53      19.4570      0.00000
     54      19.9976      0.00000
     55      20.8731      0.00000
     56      21.2630      0.00000
     57      21.6413      0.00000
     58      22.8424      0.00000
     59      23.7758      0.00000
     60      25.1158      0.00000

 k-point   2 :       0.2500    0.0000    0.1250
  band No.  band energies     occupation 
      1      -9.4753      2.00000
      2      -8.5217      2.00000
      3      -6.0583      2.00000
      4      -5.1844      2.00000
      5      -5.0911      2.00000
      6      -4.6162      2.00000
      7      -4.0807      2.00000
      8      -3.6240      2.00000
      9      -3.4678      2.00000
     10      -2.5234      2.00000
     11      -1.4916      2.00000
     12      -1.0433      2.00000
     13      -1.0238      2.00000
     14      -0.6493      2.00000
     15      -0.0294      2.00000
     16       0.1810      2.00000
     17       0.7029      2.00000
     18       1.1096      2.00000
     19       1.6338      2.00000
     20       1.7355      2.00000
     21       2.4396      2.00000
     22       2.8409      2.00000
     23       3.2071      2.00000
     24       3.6830      2.00000
     25       4.1722      2.00000
     26       4.6593      2.00000
     27       5.0043      2.00000
     28       5.3192      2.00000
     29       5.7660      2.00000
     30       5.9841      2.00000
     31       6.2847      2.00000
     32       6.6681      2.00000
     33       7.1442      2.00000
     34       8.0041      2.00000
     35       8.3485      2.00000
     36       9.0987      2.00000
     37       9.3835      2.00000
     38      10.2066      2.00000
     39      10.3358      2.00000
     40      11.6622      2.00000
     41      12.6212      2.00053
     42      13.0013      2.02428
     43      13.5852     -0.01522
     44      13.8796     -0.00001
     45      14.3767      0.00000
     46      14.9174      0.00000
     47      15.4887      0.00000
     48      16.0069      0.00000
     49      16.3258      0.00000
     50      17.1179      0.00000
     51      17.8761      0.00000
     52      18.5171      0.00000
     53      19.3486      0.00000
     54      19.7395      0.00000
     55      20.5316      0.00000
     56      21.0012      0.00000
     57      21.8295      0.00000
     58      23.0732      0.00000
     59      23.8516      0.00000
     60      25.1071      0.00000

 k-point   3 :       0.4167    0.0000    0.1250
  band No.  band energies     occupation 
      1      -8.9852      2.00000
      2      -8.6111      2.00000
      3      -6.3291      2.00000
      4      -5.7065      2.00000
      5      -4.8150      2.00000
      6      -4.5045      2.00000
      7      -4.1692      2.00000
      8      -3.7350      2.00000
      9      -3.2640      2.00000
     10      -2.5153      2.00000
     11      -2.0270      2.00000
     12      -1.5759      2.00000
     13      -1.0898      2.00000
     14      -0.8446      2.00000
     15       0.1945      2.00000
     16       0.6276      2.00000
     17       0.8302      2.00000
     18       1.4806      2.00000
     19       1.6649      2.00000
     20       2.2918      2.00000
     21       2.5439      2.00000
     22       3.3124      2.00000
     23       3.5722      2.00000
     24       3.8145      2.00000
     25       4.4673      2.00000
     26       4.5973      2.00000
     27       5.1226      2.00000
     28       5.7642      2.00000
     29       5.9599      2.00000
     30       6.1428      2.00000
     31       6.3776      2.00000
     32       6.8982      2.00000
     33       7.4683      2.00000
     34       7.9231      2.00000
     35       8.1879      2.00000
     36       8.5378      2.00000
     37       9.3967      2.00000
     38      10.5100      2.00000
     39      10.7930      2.00000
     40      11.3865      2.00000
     41      12.2735      2.00000
     42      12.8773      2.05309
     43      13.3817     -0.04971
     44      14.3391      0.00000
     45      14.8445      0.00000
     46      15.0621      0.00000
     47      15.5800      0.00000
     48      16.6276      0.00000
     49      17.1264      0.00000
     50      17.7548      0.00000
     51      18.1086      0.00000
     52      18.9000      0.00000
     53      19.0543      0.00000
     54      20.6034      0.00000
     55      21.2407      0.00000
     56      21.7852      0.00000
     57      22.5938      0.00000
     58      22.8931      0.00000
     59      23.9648      0.00000
     60      26.8703      0.00000

 k-point   4 :       0.0833    0.2000    0.1250
  band No.  band energies     occupation 
      1      -9.7282      2.00000
      2      -8.6606      2.00000
      3      -6.0049      2.00000
      4      -5.2605      2.00000
      5      -5.0225      2.00000
      6      -4.8704      2.00000
      7      -3.7628      2.00000
      8      -3.3266      2.00000
      9      -3.0018      2.00000
     10      -2.0152      2.00000
     11      -1.6585      2.00000
     12      -1.3862      2.00000
     13      -0.5734      2.00000
     14      -0.2837      2.00000
     15       0.0033      2.00000
     16       0.3119      2.00000
     17       0.4428      2.00000
     18       1.4840      2.00000
     19       1.7454      2.00000
     20       2.0469      2.00000
     21       2.5796      2.00000
     22       2.9752      2.00000
     23       3.2846      2.00000
     24       3.5473      2.00000
     25       3.7133      2.00000
     26       4.2501      2.00000
     27       4.6013      2.00000
     28       5.1405      2.00000
     29       5.8715      2.00000
     30       6.1830      2.00000
     31       6.6200      2.00000
     32       6.9672      2.00000
     33       7.4787      2.00000
     34       7.8365      2.00000
     35       8.3280      2.00000
     36       9.3519      2.00000
     37      10.1324      2.00000
     38      10.7383      2.00000
     39      11.4026      2.00000
     40      12.0300      2.00000
     41      12.7595      2.01088
     42      13.2649      0.36196
     43      13.9816      0.00000
     44      14.5415      0.00000
     45      15.0580      0.00000
     46      15.6103      0.00000
     47      16.1106      0.00000
     48      16.3784      0.00000
     49      17.2202      0.00000
     50      17.7859      0.00000
     51      18.3342      0.00000
     52      19.1329      0.00000
     53      19.5035      0.00000
     54      20.7955      0.00000
     55      21.3519      0.00000
     56      21.9369      0.00000
     57      22.4652      0.00000
     58      23.1394      0.00000
     59      24.1362      0.00000
     60      25.3944      0.00000

 k-point   5 :       0.2500    0.2000    0.1250
  band No.  band energies     occupation 
      1      -9.2859      2.00000
      2      -8.5369      2.00000
      3      -5.9723      2.00000
      4      -5.6402      2.00000
      5      -5.1415      2.00000
      6      -4.6496      2.00000
      7      -4.2140      2.00000
      8      -3.6331      2.00000
      9      -2.7496      2.00000
     10      -2.5159      2.00000
     11      -1.9486      2.00000
     12      -1.0527      2.00000
     13      -0.8973      2.00000
     14      -0.2124      2.00000
     15       0.1403      2.00000
     16       0.4968      2.00000
     17       0.8647      2.00000
     18       1.4142      2.00000
     19       1.7198      2.00000
     20       2.1275      2.00000
     21       2.6517      2.00000
     22       3.0837      2.00000
     23       3.4290      2.00000
     24       3.6881      2.00000
     25       4.4698      2.00000
     26       4.6452      2.00000
     27       4.8822      2.00000
     28       5.0452      2.00000
     29       5.2450      2.00000
     30       5.6780      2.00000
     31       6.0424      2.00000
     32       6.5555      2.00000
     33       6.6860      2.00000
     34       7.2379      2.00000
     35       7.7379      2.00000
     36       8.5386      2.00000
     37       9.2519      2.00000
     38       9.5954      2.00000
     39      10.2036      2.00000
     40      11.1748      2.00000
     41      11.8305      2.00000
     42      12.4134      2.00000
     43      12.6995      2.00338
     44      13.9915      0.00000
     45      14.4504      0.00000
     46      14.5875      0.00000
     47      15.4227      0.00000
     48      16.0131      0.00000
     49      16.2740      0.00000
     50      17.8027      0.00000
     51      18.4402      0.00000
     52      18.7894      0.00000
     53      19.5089      0.00000
     54      19.8298      0.00000
     55      20.6652      0.00000
     56      21.4695      0.00000
     57      22.2782      0.00000
     58      22.9689      0.00000
     59      24.1446      0.00000
     60      25.5164      0.00000

 k-point   6 :       0.4167    0.2000    0.1250
  band No.  band energies     occupation 
      1      -9.0867      2.00000
      2      -8.3636      2.00000
      3      -6.0499      2.00000
      4      -5.6025      2.00000
      5      -5.1351      2.00000
      6      -4.4034      2.00000
      7      -4.2305      2.00000
      8      -3.6281      2.00000
      9      -3.1983      2.00000
     10      -2.7852      2.00000
     11      -1.6816      2.00000
     12      -1.3699      2.00000
     13      -0.7394      2.00000
     14      -0.4189      2.00000
     15       0.3988      2.00000
     16       0.6998      2.00000
     17       1.3156      2.00000
     18       1.7386      2.00000
     19       1.9712      2.00000
     20       2.5827      2.00000
     21       2.8383      2.00000
     22       3.2182      2.00000
     23       3.5504      2.00000
     24       3.9401      2.00000
     25       4.2262      2.00000
     26       4.7571      2.00000
     27       5.0801      2.00000
     28       5.3438      2.00000
     29       5.6817      2.00000
     30       6.2912      2.00000
     31       6.6420      2.00000
     32       6.9873      2.00000
     33       7.2577      2.00000
     34       7.8015      2.00000
     35       8.1114      2.00000
     36       9.1189      2.00000
     37       9.3963      2.00000
     38       9.8100      2.00000
     39      11.0965      2.00000
     40      11.5535      2.00000
     41      12.2074      2.00000
     42      12.7856      2.01689
     43      13.1849      0.97722
     44      13.9015      0.00000
     45      14.4274      0.00000
     46      14.8706      0.00000
     47      15.6608      0.00000
     48      16.0935      0.00000
     49      16.7509      0.00000
     50      17.5808      0.00000
     51      17.9424      0.00000
     52      18.4647      0.00000
     53      19.0999      0.00000
     54      20.1424      0.00000
     55      20.5234      0.00000
     56      20.9291      0.00000
     57      21.6865      0.00000
     58      22.9790      0.00000
     59      24.0772      0.00000
     60      25.3180      0.00000

 k-point   7 :       0.0833    0.4000    0.1250
  band No.  band energies     occupation 
      1      -8.9756      2.00000
      2      -8.1819      2.00000
      3      -6.3519      2.00000
      4      -5.5461      2.00000
      5      -4.5068      2.00000
      6      -4.2848      2.00000
      7      -4.0481      2.00000
      8      -3.7966      2.00000
      9      -2.4507      2.00000
     10      -2.1386      2.00000
     11      -1.5008      2.00000
     12      -1.2135      2.00000
     13      -0.7655      2.00000
     14      -0.5777      2.00000
     15       0.2386      2.00000
     16       0.3774      2.00000
     17       0.8649      2.00000
     18       1.2221      2.00000
     19       1.7575      2.00000
     20       2.1198      2.00000
     21       2.2548      2.00000
     22       2.8058      2.00000
     23       3.1472      2.00000
     24       3.7757      2.00000
     25       3.9491      2.00000
     26       4.2457      2.00000
     27       4.6655      2.00000
     28       5.0046      2.00000
     29       5.2489      2.00000
     30       5.7341      2.00000
     31       5.8749      2.00000
     32       6.2568      2.00000
     33       6.3741      2.00000
     34       7.0958      2.00000
     35       8.0433      2.00000
     36       8.3556      2.00000
     37       9.2289      2.00000
     38       9.7496      2.00000
     39      10.4527      2.00000
     40      11.2826      2.00000
     41      11.7731      2.00000
     42      12.2170      2.00000
     43      13.3178      0.09624
     44      13.8671     -0.00001
     45      14.6081      0.00000
     46      15.2600      0.00000
     47      15.5042      0.00000
     48      16.1903      0.00000
     49      16.4160      0.00000
     50      17.7274      0.00000
     51      18.1117      0.00000
     52      18.9564      0.00000
     53      19.4633      0.00000
     54      20.2059      0.00000
     55      20.8515      0.00000
     56      21.2326      0.00000
     57      21.7751      0.00000
     58      23.1775      0.00000
     59      23.9417      0.00000
     60      25.1637      0.00000

 k-point   8 :       0.2500    0.4000    0.1250
  band No.  band energies     occupation 
      1      -9.2899      2.00000
      2      -8.6918      2.00000
      3      -5.9661      2.00000
      4      -5.7937      2.00000
      5      -4.9937      2.00000
      6      -4.6705      2.00000
      7      -4.2816      2.00000
      8      -3.3480      2.00000
      9      -3.0778      2.00000
     10      -2.5640      2.00000
     11      -1.2699      2.00000
     12      -0.8174      2.00000
     13      -0.7424      2.00000
     14      -0.2598      2.00000
     15       0.4863      2.00000
     16       0.6073      2.00000
     17       1.1517      2.00000
     18       1.6729      2.00000
     19       2.1122      2.00000
     20       2.3177      2.00000
     21       2.6083      2.00000
     22       2.8801      2.00000
     23       3.4082      2.00000
     24       3.5630      2.00000
     25       3.9165      2.00000
     26       4.3563      2.00000
     27       4.7269      2.00000
     28       4.9927      2.00000
     29       5.1836      2.00000
     30       5.5069      2.00000
     31       5.7203      2.00000
     32       6.3022      2.00000
     33       6.6403      2.00000
     34       7.1074      2.00000
     35       8.0735      2.00000
     36       8.4384      2.00000
     37       9.8230      2.00000
     38      10.2743      2.00000
     39      10.8724      2.00000
     40      11.6350      2.00000
     41      12.4816      2.00001
     42      12.8159      2.02651
     43      13.4143     -0.06953
     44      14.5116      0.00000
     45      14.8688      0.00000
     46      15.2053      0.00000
     47      16.0228      0.00000
     48      16.3086      0.00000
     49      16.8480      0.00000
     50      17.3735      0.00000
     51      18.1671      0.00000
     52      18.6694      0.00000
     53      19.4350      0.00000
     54      20.0032      0.00000
     55      21.3085      0.00000
     56      21.8250      0.00000
     57      22.3240      0.00000
     58      22.9586      0.00000
     59      23.4558      0.00000
     60      25.7071      0.00000

 k-point   9 :       0.4167    0.4000    0.1250
  band No.  band energies     occupation 
      1      -8.4708      2.00000
      2      -8.2005      2.00000
      3      -6.1028      2.00000
      4      -5.6804      2.00000
      5      -4.9431      2.00000
      6      -4.7929      2.00000
      7      -4.4848      2.00000
      8      -4.1185      2.00000
      9      -3.3872      2.00000
     10      -2.7136      2.00000
     11      -1.5581      2.00000
     12      -0.9782      2.00000
     13      -0.1052      2.00000
     14       0.7753      2.00000
     15       1.0460      2.00000
     16       1.1627      2.00000
     17       1.4005      2.00000
     18       1.7570      2.00000
     19       1.9956      2.00000
     20       2.3190      2.00000
     21       2.5154      2.00000
     22       3.1455      2.00000
     23       3.4177      2.00000
     24       3.7038      2.00000
     25       3.9438      2.00000
     26       4.0331      2.00000
     27       4.6604      2.00000
     28       4.7535      2.00000
     29       5.1673      2.00000
     30       5.6663      2.00000
     31       5.7227      2.00000
     32       6.3874      2.00000
     33       6.5747      2.00000
     34       7.1559      2.00000
     35       7.7470      2.00000
     36       8.1515      2.00000
     37       8.8798      2.00000
     38       9.8840      2.00000
     39      10.3152      2.00000
     40      11.5906      2.00000
     41      11.9111      2.00000
     42      13.1957      0.88588
     43      13.8096     -0.00009
     44      14.0702      0.00000
     45      14.7208      0.00000
     46      14.9857      0.00000
     47      15.5340      0.00000
     48      16.4327      0.00000
     49      16.6708      0.00000
     50      17.2878      0.00000
     51      18.1904      0.00000
     52      18.4405      0.00000
     53      19.3864      0.00000
     54      20.0979      0.00000
     55      20.6344      0.00000
     56      21.2451      0.00000
     57      22.1961      0.00000
     58      23.1975      0.00000
     59      24.8138      0.00000
     60      27.4134      0.00000

 k-point  10 :       0.0833    0.0000    0.3750
  band No.  band energies     occupation 
      1      -9.4904      2.00000
      2      -8.9916      2.00000
      3      -5.2372      2.00000
      4      -5.0370      2.00000
      5      -4.8112      2.00000
      6      -4.6220      2.00000
      7      -4.1817      2.00000
      8      -3.7119      2.00000
      9      -3.2368      2.00000
     10      -2.2140      2.00000
     11      -1.8277      2.00000
     12      -1.2198      2.00000
     13      -1.1212      2.00000
     14      -0.3921      2.00000
     15      -0.1473      2.00000
     16       0.2091      2.00000
     17       0.2821      2.00000
     18       0.8271      2.00000
     19       1.0144      2.00000
     20       1.4297      2.00000
     21       1.8358      2.00000
     22       2.4212      2.00000
     23       2.6246      2.00000
     24       3.0500      2.00000
     25       3.4346      2.00000
     26       3.7723      2.00000
     27       4.0647      2.00000
     28       4.5350      2.00000
     29       5.1684      2.00000
     30       5.2443      2.00000
     31       5.7577      2.00000
     32       6.4958      2.00000
     33       6.9106      2.00000
     34       7.3922      2.00000
     35       7.8486      2.00000
     36       8.4098      2.00000
     37       9.1711      2.00000
     38      10.5531      2.00000
     39      10.8193      2.00000
     40      11.0702      2.00000
     41      12.8314      2.03251
     42      13.2001      0.84879
     43      13.7593     -0.00035
     44      14.2856      0.00000
     45      14.8720      0.00000
     46      15.5350      0.00000
     47      16.1696      0.00000
     48      16.6427      0.00000
     49      17.4213      0.00000
     50      17.6928      0.00000
     51      18.1859      0.00000
     52      18.4091      0.00000
     53      18.7889      0.00000
     54      19.6997      0.00000
     55      20.3790      0.00000
     56      20.9906      0.00000
     57      21.6497      0.00000
     58      22.6859      0.00000
     59      23.2035      0.00000
     60      24.9400      0.00000

 k-point  11 :       0.2500    0.0000    0.3750
  band No.  band energies     occupation 
      1      -9.2040      2.00000
      2      -8.5986      2.00000
      3      -5.6297      2.00000
      4      -4.9090      2.00000
      5      -4.7073      2.00000
      6      -4.5050      2.00000
      7      -4.0499      2.00000
      8      -3.3784      2.00000
      9      -3.1891      2.00000
     10      -1.9969      2.00000
     11      -1.5480      2.00000
     12      -1.1702      2.00000
     13      -0.8978      2.00000
     14      -0.5016      2.00000
     15      -0.2850      2.00000
     16       0.0781      2.00000
     17       0.3295      2.00000
     18       0.5780      2.00000
     19       1.6338      2.00000
     20       2.2860      2.00000
     21       2.7026      2.00000
     22       2.8085      2.00000
     23       3.7896      2.00000
     24       3.9499      2.00000
     25       4.3601      2.00000
     26       4.6955      2.00000
     27       5.1399      2.00000
     28       5.3067      2.00000
     29       5.6729      2.00000
     30       6.1728      2.00000
     31       6.6374      2.00000
     32       7.8784      2.00000
     33       8.2965      2.00000
     34       8.8435      2.00000
     35       9.4219      2.00000
     36      10.2964      2.00000
     37      10.5050      2.00000
     38      10.9014      2.00000
     39      11.8267      2.00000
     40      12.9263      2.07006
     41      13.1862      0.96651
     42      13.5160     -0.03983
     43      13.8443     -0.00003
     44      14.1764      0.00000
     45      14.7695      0.00000
     46      15.3771      0.00000
     47      15.6600      0.00000
     48      16.1963      0.00000
     49      16.5589      0.00000
     50      17.3454      0.00000
     51      17.6381      0.00000
     52      18.9983      0.00000
     53      19.5422      0.00000
     54      19.9407      0.00000
     55      20.9788      0.00000
     56      21.2337      0.00000
     57      22.1490      0.00000
     58      23.0686      0.00000
     59      24.0880      0.00000
     60      25.6228      0.00000

 k-point  12 :       0.4167    0.0000    0.3750
  band No.  band energies     occupation 
      1      -8.6231      2.00000
      2      -8.3047      2.00000
      3      -6.5929      2.00000
      4      -6.1815      2.00000
      5      -4.5753      2.00000
      6      -4.0835      2.00000
      7      -3.7539      2.00000
      8      -3.2197      2.00000
      9      -2.6189      2.00000
     10      -2.2240      2.00000
     11      -1.6291      2.00000
     12      -1.3641      2.00000
     13      -1.1842      2.00000
     14      -0.8650      2.00000
     15       0.0846      2.00000
     16       0.3742      2.00000
     17       1.1362      2.00000
     18       1.7685      2.00000
     19       1.9897      2.00000
     20       2.4992      2.00000
     21       2.8471      2.00000
     22       3.2332      2.00000
     23       3.8067      2.00000
     24       4.2610      2.00000
     25       4.4155      2.00000
     26       4.8207      2.00000
     27       5.1241      2.00000
     28       5.4578      2.00000
     29       5.8968      2.00000
     30       6.2037      2.00000
     31       6.9947      2.00000
     32       7.2203      2.00000
     33       7.8058      2.00000
     34       8.1314      2.00000
     35       8.8266      2.00000
     36       9.6291      2.00000
     37       9.9527      2.00000
     38      10.3505      2.00000
     39      11.5765      2.00000
     40      12.1361      2.00000
     41      12.5818      2.00018
     42      12.9891      2.04236
     43      13.4507     -0.06730
     44      13.8329     -0.00004
     45      14.4507      0.00000
     46      15.3173      0.00000
     47      15.6781      0.00000
     48      16.2170      0.00000
     49      16.8554      0.00000
     50      17.3695      0.00000
     51      17.9723      0.00000
     52      18.2158      0.00000
     53      18.8652      0.00000
     54      19.3417      0.00000
     55      20.6664      0.00000
     56      21.5327      0.00000
     57      21.9868      0.00000
     58      22.3834      0.00000
     59      23.7239      0.00000
     60      24.9670      0.00000

 k-point  13 :       0.0833    0.2000    0.3750
  band No.  band energies     occupation 
      1      -9.3045      2.00000
      2      -8.0493      2.00000
      3      -6.1624      2.00000
      4      -5.6389      2.00000
      5      -4.7199      2.00000
      6      -4.0042      2.00000
      7      -3.7628      2.00000
      8      -3.1446      2.00000
      9      -2.8292      2.00000
     10      -1.6847      2.00000
     11      -1.4312      2.00000
     12      -1.2568      2.00000
     13      -0.6642      2.00000
     14      -0.4246      2.00000
     15      -0.0569      2.00000
     16       0.2651      2.00000
     17       0.8106      2.00000
     18       0.9751      2.00000
     19       1.2466      2.00000
     20       1.7702      2.00000
     21       2.2525      2.00000
     22       2.8998      2.00000
     23       3.3682      2.00000
     24       3.5956      2.00000
     25       4.0274      2.00000
     26       4.1793      2.00000
     27       4.6516      2.00000
     28       4.8236      2.00000
     29       5.1923      2.00000
     30       5.7251      2.00000
     31       6.1840      2.00000
     32       6.6561      2.00000
     33       7.2651      2.00000
     34       7.4258      2.00000
     35       7.9025      2.00000
     36       8.7959      2.00000
     37       9.5173      2.00000
     38      10.2851      2.00000
     39      11.0016      2.00000
     40      11.2480      2.00000
     41      11.9521      2.00000
     42      12.8777      2.05326
     43      13.2649      0.36188
     44      14.0883      0.00000
     45      14.7949      0.00000
     46      15.3563      0.00000
     47      15.9470      0.00000
     48      16.5938      0.00000
     49      16.7980      0.00000
     50      17.6836      0.00000
     51      17.9223      0.00000
     52      18.7206      0.00000
     53      19.2385      0.00000
     54      19.6053      0.00000
     55      20.4265      0.00000
     56      21.4111      0.00000
     57      21.9062      0.00000
     58      22.7153      0.00000
     59      23.6505      0.00000
     60      25.2595      0.00000

 k-point  14 :       0.2500    0.2000    0.3750
  band No.  band energies     occupation 
      1      -9.1665      2.00000
      2      -8.7736      2.00000
      3      -5.8563      2.00000
      4      -5.5547      2.00000
      5      -5.4237      2.00000
      6      -4.8224      2.00000
      7      -3.8755      2.00000
      8      -3.1994      2.00000
      9      -2.3974      2.00000
     10      -2.2423      2.00000
     11      -1.5006      2.00000
     12      -1.1014      2.00000
     13      -0.6072      2.00000
     14      -0.4130      2.00000
     15      -0.0098      2.00000
     16       0.3442      2.00000
     17       0.8590      2.00000
     18       1.1745      2.00000
     19       1.6641      2.00000
     20       2.0630      2.00000
     21       2.3322      2.00000
     22       2.5695      2.00000
     23       2.9109      2.00000
     24       3.8972      2.00000
     25       4.1772      2.00000
     26       4.4146      2.00000
     27       4.7392      2.00000
     28       5.1180      2.00000
     29       5.6445      2.00000
     30       5.9016      2.00000
     31       6.6770      2.00000
     32       6.8822      2.00000
     33       7.6172      2.00000
     34       7.9221      2.00000
     35       8.4250      2.00000
     36       9.2465      2.00000
     37       9.6490      2.00000
     38      10.2181      2.00000
     39      11.2355      2.00000
     40      11.7612      2.00000
     41      12.2671      2.00000
     42      12.8865      2.05721
     43      13.1741      1.06823
     44      13.4204     -0.07055
     45      13.7496     -0.00045
     46      15.2213      0.00000
     47      16.2610      0.00000
     48      16.5657      0.00000
     49      16.9935      0.00000
     50      17.4566      0.00000
     51      18.6419      0.00000
     52      19.0421      0.00000
     53      20.0259      0.00000
     54      20.2990      0.00000
     55      20.6838      0.00000
     56      21.0036      0.00000
     57      21.7852      0.00000
     58      22.8136      0.00000
     59      23.8491      0.00000
     60      24.9177      0.00000

 k-point  15 :       0.4167    0.2000    0.3750
  band No.  band energies     occupation 
      1      -8.9496      2.00000
      2      -8.1984      2.00000
      3      -6.4989      2.00000
      4      -6.0160      2.00000
      5      -4.8555      2.00000
      6      -4.7699      2.00000
      7      -4.0383      2.00000
      8      -3.7851      2.00000
      9      -2.7945      2.00000
     10      -2.2111      2.00000
     11      -1.7142      2.00000
     12      -1.5278      2.00000
     13      -0.8760      2.00000
     14      -0.2910      2.00000
     15       0.0595      2.00000
     16       0.4686      2.00000
     17       0.6212      2.00000
     18       0.9324      2.00000
     19       1.5208      2.00000
     20       2.0567      2.00000
     21       2.4363      2.00000
     22       2.9922      2.00000
     23       3.4382      2.00000
     24       3.6539      2.00000
     25       4.1359      2.00000
     26       4.2841      2.00000
     27       4.5325      2.00000
     28       5.1532      2.00000
     29       5.5923      2.00000
     30       6.0237      2.00000
     31       6.3913      2.00000
     32       6.6415      2.00000
     33       6.9551      2.00000
     34       7.5117      2.00000
     35       7.8026      2.00000
     36       8.2965      2.00000
     37       8.8041      2.00000
     38       9.7244      2.00000
     39      10.3522      2.00000
     40      10.6450      2.00000
     41      11.0300      2.00000
     42      11.8084      2.00000
     43      13.2868      0.23504
     44      13.7955     -0.00013
     45      14.9598      0.00000
     46      15.5545      0.00000
     47      16.2054      0.00000
     48      16.5200      0.00000
     49      17.1164      0.00000
     50      17.3961      0.00000
     51      18.3037      0.00000
     52      18.8300      0.00000
     53      19.1569      0.00000
     54      19.9854      0.00000
     55      20.4906      0.00000
     56      20.9711      0.00000
     57      21.5279      0.00000
     58      22.4669      0.00000
     59      24.9392      0.00000
     60      25.8726      0.00000

 k-point  16 :       0.0833    0.4000    0.3750
  band No.  band energies     occupation 
      1      -9.1557      2.00000
      2      -8.1807      2.00000
      3      -6.4102      2.00000
      4      -5.9026      2.00000
      5      -4.7548      2.00000
      6      -4.0732      2.00000
      7      -3.6860      2.00000
      8      -3.0837      2.00000
      9      -2.6200      2.00000
     10      -2.0653      2.00000
     11      -1.4154      2.00000
     12      -1.1825      2.00000
     13      -0.8863      2.00000
     14      -0.6267      2.00000
     15      -0.1142      2.00000
     16       0.4092      2.00000
     17       0.7555      2.00000
     18       1.1751      2.00000
     19       1.7435      2.00000
     20       1.8900      2.00000
     21       2.5923      2.00000
     22       2.7665      2.00000
     23       3.0617      2.00000
     24       3.7795      2.00000
     25       4.0485      2.00000
     26       4.5334      2.00000
     27       4.9345      2.00000
     28       5.3415      2.00000
     29       5.7671      2.00000
     30       6.0221      2.00000
     31       6.4375      2.00000
     32       6.6717      2.00000
     33       7.1625      2.00000
     34       7.5841      2.00000
     35       8.4160      2.00000
     36       9.0222      2.00000
     37       9.3116      2.00000
     38       9.9901      2.00000
     39      10.7779      2.00000
     40      11.2177      2.00000
     41      12.0844      2.00000
     42      12.7078      2.00402
     43      13.3811     -0.04908
     44      13.8848     -0.00001
     45      14.1911      0.00000
     46      15.3735      0.00000
     47      15.7822      0.00000
     48      16.8238      0.00000
     49      17.4082      0.00000
     50      17.8138      0.00000
     51      18.4159      0.00000
     52      19.1457      0.00000
     53      19.9055      0.00000
     54      20.2979      0.00000
     55      20.6427      0.00000
     56      21.3363      0.00000
     57      21.9526      0.00000
     58      22.8353      0.00000
     59      23.9702      0.00000
     60      24.8602      0.00000

 k-point  17 :       0.2500    0.4000    0.3750
  band No.  band energies     occupation 
      1      -9.1441      2.00000
      2      -8.2702      2.00000
      3      -6.5298      2.00000
      4      -5.8433      2.00000
      5      -5.3154      2.00000
      6      -4.9420      2.00000
      7      -3.9647      2.00000
      8      -3.7077      2.00000
      9      -2.5759      2.00000
     10      -1.9320      2.00000
     11      -1.1139      2.00000
     12      -0.6250      2.00000
     13      -0.4663      2.00000
     14      -0.2819      2.00000
     15       0.0365      2.00000
     16       0.4919      2.00000
     17       0.8101      2.00000
     18       0.9965      2.00000
     19       1.2416      2.00000
     20       1.9124      2.00000
     21       2.7765      2.00000
     22       2.9460      2.00000
     23       3.4702      2.00000
     24       3.7479      2.00000
     25       4.1914      2.00000
     26       4.7881      2.00000
     27       5.0248      2.00000
     28       5.0953      2.00000
     29       5.5269      2.00000
     30       6.1246      2.00000
     31       6.4655      2.00000
     32       6.9487      2.00000
     33       7.3257      2.00000
     34       7.9328      2.00000
     35       8.2749      2.00000
     36       8.7272      2.00000
     37       9.3439      2.00000
     38      10.1919      2.00000
     39      11.1883      2.00000
     40      11.4090      2.00000
     41      11.9839      2.00000
     42      12.6450      2.00097
     43      13.8718     -0.00001
     44      14.3338      0.00000
     45      14.8198      0.00000
     46      15.5690      0.00000
     47      15.8903      0.00000
     48      16.4262      0.00000
     49      17.1268      0.00000
     50      17.7759      0.00000
     51      18.3004      0.00000
     52      19.4474      0.00000
     53      20.2349      0.00000
     54      20.5600      0.00000
     55      21.2492      0.00000
     56      21.7719      0.00000
     57      22.4588      0.00000
     58      23.4189      0.00000
     59      24.1462      0.00000
     60      25.9014      0.00000

 k-point  18 :       0.4167    0.4000    0.3750
  band No.  band energies     occupation 
      1      -8.8145      2.00000
      2      -8.5028      2.00000
      3      -6.0050      2.00000
      4      -5.6481      2.00000
      5      -5.4102      2.00000
      6      -5.0699      2.00000
      7      -4.8435      2.00000
      8      -4.3105      2.00000
      9      -2.6370      2.00000
     10      -2.2723      2.00000
     11      -0.7941      2.00000
     12      -0.5323      2.00000
     13      -0.3695      2.00000
     14      -0.2572      2.00000
     15       0.4857      2.00000
     16       0.7921      2.00000
     17       0.9316      2.00000
     18       1.3684      2.00000
     19       1.8558      2.00000
     20       2.1880      2.00000
     21       2.5497      2.00000
     22       2.7299      2.00000
     23       3.0110      2.00000
     24       3.7262      2.00000
     25       4.0007      2.00000
     26       4.1662      2.00000
     27       4.4365      2.00000
     28       4.7785      2.00000
     29       5.8013      2.00000
     30       6.1876      2.00000
     31       6.5588      2.00000
     32       6.9630      2.00000
     33       7.3501      2.00000
     34       8.1316      2.00000
     35       8.3899      2.00000
     36       8.7726      2.00000
     37       9.8037      2.00000
     38      10.4231      2.00000
     39      10.5208      2.00000
     40      11.6594      2.00000
     41      12.0581      2.00000
     42      12.5163      2.00003
     43      13.3276      0.06214
     44      14.0929      0.00000
     45      14.4386      0.00000
     46      15.0832      0.00000
     47      15.4878      0.00000
     48      15.9818      0.00000
     49      16.8831      0.00000
     50      17.1281      0.00000
     51      17.7252      0.00000
     52      18.6320      0.00000
     53      18.8624      0.00000
     54      20.0743      0.00000
     55      20.4218      0.00000
     56      21.0500      0.00000
     57      22.1987      0.00000
     58      22.5326      0.00000
     59      23.9121      0.00000
     60      24.3538      0.00000


----------------------------------------- Iteration    1(   2)  ---------------------------------------


     EDDAV:  cpu time    3.78: real time    3.80
       DOS:  cpu time    0.00: real time    0.00
    --------------------------------------------
      LOOP:  cpu time    3.78: real time    3.81

 eigenvalue-minimisations  :  2792
 total energy-change (2. order) :-0.2805798E+03  (-0.2671890E+03)
 number of electron      84.0000000 magnetization 
 augmentation part       84.0000000 magnetization 

 Free energy of the ion-electron system (eV)
  ---------------------------------------------------
  alpha Z        PSCENC =       275.35823565
  Ewald energy   TEWEN  =     -2486.95950226
  -1/2 Hartree   DENC   =      -121.48696496
  -exchange  EXHF       =         0.00000000
  -V(xc)+E(xc)   XCENC  =       204.13585027
  PAW double counting   =      1217.99623415    -1194.04727563
  entropy T*S    EENTRO =         0.00484804
  eigenvalues    EBANDS =       -70.50818343
  atomic energy  EATOM  =      1992.56850112
  ---------------------------------------------------
  free energy    TOTEN  =      -182.93825704 eV

  energy without entropy =     -182.94310508  energy(sigma->0) =     -182.93987305


--------------------------------------------------------------------------------------------------------


 E-fermi :   5.6118     XC(G=0): -12.0863     alpha+bet :-15.8659


 k-point   1 :       0.0833    0.0000    0.1250
  band No.  band energies     occupation 
      1     -10.8800      2.00000
      2     -10.1460      2.00000
      3      -7.0049      2.00000
      4      -6.9290      2.00000
      5      -6.7001      2.00000
      6      -6.0393      2.00000
      7      -6.0040      2.00000
      8      -5.5529      2.00000
      9      -5.3361      2.00000
     10      -4.3292      2.00000
     11      -3.5253      2.00000
     12      -2.8075      2.00000
     13      -2.6329      2.00000
     14      -2.5747      2.00000
     15      -2.3634      2.00000
     16      -2.1285      2.00000
     17      -1.6768      2.00000
     18      -1.2370      2.00000
     19      -0.9626      2.00000
     20      -0.2483      2.00000
     21      -0.1692      2.00000
     22      -0.0716      2.00000
     23       0.1146      2.00000
     24       0.5959      2.00000
     25       0.7041      2.00000
     26       0.8339      2.00000
     27       1.2825      2.00000
     28       1.5341      2.00000
     29       2.0625      2.00000
     30       2.2330      2.00000
     31       2.4086      2.00000
     32       2.6349      2.00000
     33       2.7173      2.00000
     34       2.9630      2.00000
     35       3.5388      2.00000
     36       3.6202      2.00000
     37       3.7079      2.00000
     38       3.7721      2.00000
     39       4.1093      2.00000
     40       4.6970      2.00000
     41       5.1286      2.00334
     42       5.3028      2.05121
     43       8.5681      0.00000
     44       8.8100      0.00000
     45       8.9454      0.00000
     46       9.4116      0.00000
     47       9.7111      0.00000
     48      10.2466      0.00000
     49      10.2996      0.00000
     50      10.4698      0.00000
     51      10.9966      0.00000
     52      11.6512      0.00000
     53      12.6086      0.00000
     54      12.9235      0.00000
     55      13.3959      0.00000
     56      13.6198      0.00000
     57      13.7809      0.00000
     58      14.1744      0.00000
     59      14.5574      0.00000
     60      15.5021      0.00000

 k-point   2 :       0.2500    0.0000    0.1250
  band No.  band energies     occupation 
      1     -10.7057      2.00000
      2     -10.1384      2.00000
      3      -7.3228      2.00000
      4      -6.9534      2.00000
      5      -6.5851      2.00000
      6      -6.5324      2.00000
      7      -6.1008      2.00000
      8      -5.3628      2.00000
      9      -5.2466      2.00000
     10      -4.1959      2.00000
     11      -3.3191      2.00000
     12      -3.1624      2.00000
     13      -2.7015      2.00000
     14      -2.6321      2.00000
     15      -2.3652      2.00000
     16      -2.3204      2.00000
     17      -1.7221      2.00000
     18      -1.4650      2.00000
     19      -0.8087      2.00000
     20      -0.7204      2.00000
     21      -0.4891      2.00000
     22       0.5865      2.00000
     23       0.7463      2.00000
     24       0.7780      2.00000
     25       1.3684      2.00000
     26       1.5657      2.00000
     27       1.6577      2.00000
     28       2.1073      2.00000
     29       2.1736      2.00000
     30       2.4093      2.00000
     31       2.5547      2.00000
     32       2.7055      2.00000
     33       2.9747      2.00000
     34       3.0551      2.00000
     35       3.1765      2.00000
     36       3.2483      2.00000
     37       3.5378      2.00000
     38       3.8492      2.00000
     39       3.9641      2.00000
     40       4.4279      2.00000
     41       4.5072      2.00000
     42       5.2730      2.03760
     43       8.5746      0.00000
     44       8.6686      0.00000
     45       8.8488      0.00000
     46       9.5177      0.00000
     47       9.6032      0.00000
     48       9.8333      0.00000
     49      10.1300      0.00000
     50      10.5189      0.00000
     51      11.0492      0.00000
     52      11.2575      0.00000
     53      11.6070      0.00000
     54      11.8570      0.00000
     55      12.2766      0.00000
     56      12.6870      0.00000
     57      13.2231      0.00000
     58      13.4481      0.00000
     59      14.0365      0.00000
     60      14.4293      0.00000

 k-point   3 :       0.4167    0.0000    0.1250
  band No.  band energies     occupation 
      1     -10.4444      2.00000
      2     -10.2166      2.00000
      3      -7.5782      2.00000
      4      -7.3609      2.00000
      5      -6.4888      2.00000
      6      -6.2378      2.00000
      7      -6.1789      2.00000
      8      -5.7132      2.00000
      9      -4.7651      2.00000
     10      -4.1984      2.00000
     11      -3.7049      2.00000
     12      -3.6561      2.00000
     13      -3.0402      2.00000
     14      -2.8621      2.00000
     15      -2.2100      2.00000
     16      -1.9940      2.00000
     17      -1.5233      2.00000
     18      -1.2752      2.00000
     19      -0.7762      2.00000
     20      -0.3425      2.00000
     21      -0.1006      2.00000
     22       0.4497      2.00000
     23       1.2200      2.00000
     24       1.4435      2.00000
     25       1.4886      2.00000
     26       1.6936      2.00000
     27       2.0127      2.00000
     28       2.1305      2.00000
     29       2.1942      2.00000
     30       2.2476      2.00000
     31       2.3953      2.00000
     32       2.5318      2.00000
     33       2.9326      2.00000
     34       3.1408      2.00000
     35       3.2711      2.00000
     36       3.5902      2.00000
     37       3.6647      2.00000
     38       3.8434      2.00000
     39       4.0347      2.00000
     40       4.3799      2.00000
     41       4.5406      2.00000
     42       4.6801      2.00000
     43       7.9749      0.00000
     44       8.2242      0.00000
     45       8.9296      0.00000
     46       9.0486      0.00000
     47       9.3969      0.00000
     48       9.6517      0.00000
     49       9.7920      0.00000
     50       9.9171      0.00000
     51      10.3943      0.00000
     52      10.6534      0.00000
     53      11.2982      0.00000
     54      11.7244      0.00000
     55      11.9441      0.00000
     56      12.4965      0.00000
     57      13.1511      0.00000
     58      13.5742      0.00000
     59      14.2534      0.00000
     60      14.5894      0.00000

 k-point   4 :       0.0833    0.2000    0.1250
  band No.  band energies     occupation 
      1     -10.7660      2.00000
      2     -10.1690      2.00000
      3      -7.4318      2.00000
      4      -6.9069      2.00000
      5      -6.6609      2.00000
      6      -6.4455      2.00000
      7      -5.9491      2.00000
      8      -5.3704      2.00000
      9      -4.9963      2.00000
     10      -3.8533      2.00000
     11      -3.4382      2.00000
     12      -3.2070      2.00000
     13      -2.7402      2.00000
     14      -2.5574      2.00000
     15      -2.3450      2.00000
     16      -2.0477      2.00000
     17      -1.5590      2.00000
     18      -0.8942      2.00000
     19      -0.7564      2.00000
     20      -0.5712      2.00000
     21      -0.3774      2.00000
     22      -0.0566      2.00000
     23       0.1925      2.00000
     24       0.7600      2.00000
     25       0.9132      2.00000
     26       1.1568      2.00000
     27       1.5815      2.00000
     28       1.8139      2.00000
     29       2.0846      2.00000
     30       2.2512      2.00000
     31       2.3402      2.00000
     32       2.4409      2.00000
     33       2.5971      2.00000
     34       2.9574      2.00000
     35       3.1287      2.00000
     36       3.4724      2.00000
     37       3.6099      2.00000
     38       3.7351      2.00000
     39       4.0278      2.00000
     40       4.4801      2.00000
     41       4.6706      2.00000
     42       5.1601      2.00635
     43       8.2775      0.00000
     44       8.3583      0.00000
     45       8.9000      0.00000
     46       9.4580      0.00000
     47       9.7828      0.00000
     48      10.0611      0.00000
     49      10.6106      0.00000
     50      10.8645      0.00000
     51      11.1067      0.00000
     52      11.8579      0.00000
     53      12.2145      0.00000
     54      12.4353      0.00000
     55      12.9680      0.00000
     56      13.3903      0.00000
     57      14.0428      0.00000
     58      14.3164      0.00000
     59      14.7517      0.00000
     60      16.0536      0.00000

 k-point   5 :       0.2500    0.2000    0.1250
  band No.  band energies     occupation 
      1     -10.6316      2.00000
      2     -10.1396      2.00000
      3      -7.2892      2.00000
      4      -7.2519      2.00000
      5      -6.8102      2.00000
      6      -6.3772      2.00000
      7      -6.2768      2.00000
      8      -5.5183      2.00000
      9      -4.8352      2.00000
     10      -4.1414      2.00000
     11      -3.7994      2.00000
     12      -2.9927      2.00000
     13      -2.7288      2.00000
     14      -2.3959      2.00000
     15      -2.1977      2.00000
     16      -1.8016      2.00000
     17      -1.4932      2.00000
     18      -1.4166      2.00000
     19      -0.8614      2.00000
     20      -0.5359      2.00000
     21       0.0691      2.00000
     22       0.1588      2.00000
     23       0.3705      2.00000
     24       0.8334      2.00000
     25       1.2573      2.00000
     26       1.7098      2.00000
     27       1.8837      2.00000
     28       2.0691      2.00000
     29       2.1759      2.00000
     30       2.2253      2.00000
     31       2.4342      2.00000
     32       2.4573      2.00000
     33       2.6240      2.00000
     34       2.7689      2.00000
     35       2.9962      2.00000
     36       3.2046      2.00000
     37       3.3671      2.00000
     38       3.6310      2.00000
     39       3.8538      2.00000
     40       4.1748      2.00000
     41       4.5249      2.00000
     42       4.9099      2.00001
     43       8.2279      0.00000
     44       8.7756      0.00000
     45       9.0279      0.00000
     46       9.3789      0.00000
     47       9.6467      0.00000
     48       9.8937      0.00000
     49      10.5045      0.00000
     50      10.7744      0.00000
     51      10.9018      0.00000
     52      11.6623      0.00000
     53      12.2885      0.00000
     54      12.4321      0.00000
     55      12.7870      0.00000
     56      13.1113      0.00000
     57      13.6111      0.00000
     58      13.9502      0.00000
     59      14.8600      0.00000
     60      15.3990      0.00000

 k-point   6 :       0.4167    0.2000    0.1250
  band No.  band energies     occupation 
      1     -10.3745      2.00000
      2     -10.1632      2.00000
      3      -7.5153      2.00000
      4      -7.3659      2.00000
      5      -6.7882      2.00000
      6      -6.4490      2.00000
      7      -6.0909      2.00000
      8      -5.8035      2.00000
      9      -4.8845      2.00000
     10      -4.6208      2.00000
     11      -3.5175      2.00000
     12      -3.1536      2.00000
     13      -2.8216      2.00000
     14      -2.4777      2.00000
     15      -2.2773      2.00000
     16      -1.8238      2.00000
     17      -1.1381      2.00000
     18      -0.7312      2.00000
     19      -0.4753      2.00000
     20      -0.2951      2.00000
     21      -0.0152      2.00000
     22       0.4282      2.00000
     23       0.9262      2.00000
     24       1.2490      2.00000
     25       1.3201      2.00000
     26       1.6004      2.00000
     27       1.7955      2.00000
     28       1.8759      2.00000
     29       2.1674      2.00000
     30       2.2040      2.00000
     31       2.4875      2.00000
     32       2.5831      2.00000
     33       2.8644      2.00000
     34       3.0044      2.00000
     35       3.0753      2.00000
     36       3.2407      2.00000
     37       3.3237      2.00000
     38       3.6818      2.00000
     39       3.8708      2.00000
     40       3.9881      2.00000
     41       4.1960      2.00000
     42       4.5568      2.00000
     43       8.1890      0.00000
     44       8.3435      0.00000
     45       8.8003      0.00000
     46       9.1113      0.00000
     47       9.6503      0.00000
     48       9.7333      0.00000
     49      10.0665      0.00000
     50      10.6472      0.00000
     51      10.8742      0.00000
     52      11.4457      0.00000
     53      11.9551      0.00000
     54      12.2869      0.00000
     55      12.7407      0.00000
     56      13.0588      0.00000
     57      13.8132      0.00000
     58      14.8030      0.00000
     59      15.3556      0.00000
     60      16.5787      0.00000

 k-point   7 :       0.0833    0.4000    0.1250
[...]
     43       8.0840      0.00000
     44       8.1827      0.00000
     45       8.8108      0.00000
     46       8.9281      0.00000
     47       9.3890      0.00000
     48       9.5827      0.00000
     49      10.1830      0.00000
     50      10.4312      0.00000
     51      10.8723      0.00000
     52      11.0273      0.00000
     53      11.2213      0.00000
     54      11.5794      0.00000
     55      12.1370      0.00000
     56      12.2034      0.00000
     57      12.4024      0.00000
     58      12.4497      0.00000
     59      12.8970      0.00000
     60      12.9301      0.00000

 k-point  16 :       0.0833    0.4000    0.3750
  band No.  band energies     occupation 
      1      -9.2427      2.00000
      2      -9.0649      2.00000
      3      -7.3377      2.00000
      4      -7.1576      2.00000
      5      -5.1741      2.00000
      6      -4.8700      2.00000
      7      -4.6552      2.00000
      8      -4.4765      2.00000
      9      -3.5781      2.00000
     10      -3.4095      2.00000
     11      -2.8201      2.00000
     12      -2.5546      2.00000
     13      -2.2652      2.00000
     14      -1.9760      2.00000
     15      -1.6310      2.00000
     16      -1.3848      2.00000
     17      -0.8522      2.00000
     18      -0.7200      2.00000
     19      -0.2766      2.00000
     20       0.1522      2.00000
     21       0.6659      2.00000
     22       0.9191      2.00000
     23       0.9775      2.00000
     24       1.1413      2.00000
     25       1.5148      2.00000
     26       1.6734      2.00000
     27       1.7502      2.00000
     28       2.1683      2.00000
     29       2.3858      2.00000
     30       2.5698      2.00000
     31       3.0166      2.00000
     32       3.1741      2.00000
     33       3.4797      2.00000
     34       3.6606      2.00000
     35       3.7904      2.00000
     36       3.9255      2.00000
     37       4.3303      2.00000
     38       4.5035      2.00000
     39       4.9642      2.00000
     40       5.1291      2.00000
     41       5.5332      2.00000
     42       5.8567      2.01765
     43       7.8191      0.00000
     44       8.0330      0.00000
     45       9.1006      0.00000
     46       9.2282      0.00000
     47       9.3849      0.00000
     48       9.6402      0.00000
     49      10.2999      0.00000
     50      10.3999      0.00000
     51      10.7589      0.00000
     52      11.1256      0.00000
     53      11.6558      0.00000
     54      11.9520      0.00000
     55      12.6303      0.00000
     56      13.1685      0.00000
     57      13.2871      0.00000
     58      13.4278      0.00000
     59      13.6793      0.00000
     60      14.0571      0.00000

 k-point  17 :       0.2500    0.4000    0.3750
  band No.  band energies     occupation 
      1      -9.1077      2.00000
      2      -8.9621      2.00000
      3      -7.1276      2.00000
      4      -6.9642      2.00000
      5      -5.9166      2.00000
      6      -5.4514      2.00000
      7      -5.1593      2.00000
      8      -4.8654      2.00000
      9      -3.7968      2.00000
     10      -3.4939      2.00000
     11      -2.3522      2.00000
     12      -2.0840      2.00000
     13      -1.7428      2.00000
     14      -1.5871      2.00000
     15      -1.2332      2.00000
     16      -0.9425      2.00000
     17      -0.7318      2.00000
     18      -0.5623      2.00000
     19      -0.4643      2.00000
     20      -0.0960      2.00000
     21       0.3919      2.00000
     22       0.7660      2.00000
     23       0.8520      2.00000
     24       1.3355      2.00000
     25       1.5223      2.00000
     26       1.8299      2.00000
     27       1.9384      2.00000
     28       2.3643      2.00000
     29       2.3828      2.00000
     30       2.7221      2.00000
     31       3.0450      2.00000
     32       3.1883      2.00000
     33       3.6509      2.00000
     34       3.8298      2.00000
     35       3.8876      2.00000
     36       4.0176      2.00000
     37       4.2962      2.00000
     38       4.4886      2.00000
     39       4.5729      2.00000
     40       4.9769      2.00000
     41       5.4372      2.00000
     42       5.7461      2.00210
     43       7.8385      0.00000
     44       8.0683      0.00000
     45       9.0944      0.00000
     46       9.2345      0.00000
     47       9.2916      0.00000
     48       9.6680      0.00000
     49       9.9080      0.00000
     50      10.1603      0.00000
     51      10.7638      0.00000
     52      10.8843      0.00000
     53      11.4027      0.00000
     54      11.6181      0.00000
     55      12.5097      0.00000
     56      12.6524      0.00000
     57      12.8770      0.00000
     58      13.3252      0.00000
     59      13.6992      0.00000
     60      13.8538      0.00000

 k-point  18 :       0.4167    0.4000    0.3750
  band No.  band energies     occupation 
      1      -8.9235      2.00000
      2      -8.8617      2.00000
      3      -6.8251      2.00000
      4      -6.6093      2.00000
      5      -6.4607      2.00000
      6      -5.9212      2.00000
      7      -5.7829      2.00000
      8      -5.4627      2.00000
      9      -3.6269      2.00000
     10      -3.4279      2.00000
     11      -2.0352      2.00000
     12      -2.0172      2.00000
     13      -1.7279      2.00000
     14      -1.6279      2.00000
     15      -1.0211      2.00000
     16      -0.9430      2.00000
     17      -0.6481      2.00000
     18      -0.2288      2.00000
     19       0.1630      2.00000
     20       0.2309      2.00000
     21       0.3750      2.00000
     22       0.7014      2.00000
     23       0.7988      2.00000
     24       1.1609      2.00000
     25       2.0110      2.00000
     26       2.1977      2.00000
     27       2.2502      2.00000
     28       2.5189      2.00000
     29       2.6647      2.00000
     30       2.8826      2.00000
     31       2.9420      2.00000
     32       3.0160      2.00000
     33       3.1231      2.00000
     34       3.2602      2.00000
     35       3.7659      2.00000
     36       3.9009      2.00000
     37       4.2608      2.00000
     38       4.3812      2.00000
     39       4.7483      2.00000
     40       4.9595      2.00000
     41       5.4269      2.00000
     42       5.5307      2.00000
     43       7.9618      0.00000
     44       8.0430      0.00000
     45       8.9676      0.00000
     46       9.0775      0.00000
     47       9.3733      0.00000
     48       9.5344      0.00000
     49       9.9007      0.00000
     50      10.1358      0.00000
     51      10.8604      0.00000
     52      11.0807      0.00000
     53      11.3197      0.00000
     54      11.4490      0.00000
     55      12.3349      0.00000
     56      12.4335      0.00000
     57      12.8614      0.00000
     58      13.0529      0.00000
     59      13.2343      0.00000
     60      13.2962      0.00000


--------------------------------------------------------------------------------------------------------


 soft charge-density along one line, spin component           1
         0         1         2         3         4         5         6         7         8         9
 total charge-density along one line
 
 pseudopotential strength for first ion, spin component:           1
  6.164   9.365   0.016   0.000   0.004   0.025   0.000   0.007
  9.365  14.222   0.024   0.000   0.006   0.038   0.000   0.010
  0.016   0.024  -2.050   0.000  -0.003  -3.451   0.000  -0.005
  0.000   0.000   0.000  -2.053   0.000   0.000  -3.456   0.000
  0.004   0.006  -0.003   0.000  -2.046  -0.005   0.000  -3.444
  0.025   0.038  -3.451   0.000  -0.005  -5.609   0.000  -0.008
  0.000   0.000   0.000  -3.456   0.000   0.000  -5.615   0.000
  0.007   0.010  -0.005   0.000  -3.444  -0.008   0.000  -5.595
 total augmentation occupancy for first ion, spin component:           1
  3.232  -0.780  -0.326   0.000  -0.008   0.057   0.000  -0.012
 -0.780   0.213  -0.024   0.000  -0.036   0.012   0.000   0.011
 -0.326  -0.024   2.919   0.000  -0.221  -0.765   0.000   0.010
  0.000   0.000   0.000   2.083   0.000   0.000  -0.585   0.000
 -0.008  -0.036  -0.221   0.000   3.270   0.010   0.000  -0.800
  0.057   0.012  -0.765   0.000   0.010   0.207   0.000   0.009
  0.000   0.000   0.000  -0.585   0.000   0.000   0.167   0.000
 -0.012   0.011   0.010   0.000  -0.800   0.009   0.000   0.205


------------------------ aborting loop because EDIFF is reached ----------------------------------------


    CHARGE:  cpu time    0.11: real time    0.11
    FORLOC:  cpu time    0.01: real time    0.01
    FORNL :  cpu time    0.94: real time    0.95
    STRESS:  cpu time    3.02: real time    3.03
    FORCOR:  cpu time    0.04: real time    0.04
    FORHAR:  cpu time    0.02: real time    0.02
    MIXING:  cpu time    0.00: real time    0.00

  FORCE on cell =-STRESS in cart. coord.  units (eV):
  Direction    XX          YY          ZZ          XY          YZ          ZX
  --------------------------------------------------------------------------------------
  Alpha Z   277.96294   277.96294   277.96294
  Ewald    -876.44232  -810.92438  -808.48642     0.00000     0.00000     0.00000
  Hartree    49.23265    69.44599    63.07473     0.00000     0.00000     0.00000
  E(xc)    -275.07197  -274.71308  -274.36795     0.00000     0.00000     0.00000
  Local     -97.63870  -168.49962  -148.92169     0.00000     0.00000     0.00000
  n-local   -33.17222   -30.11931   -28.39571    -0.30796     0.25182    -0.13896
  augment     2.11628     2.19612     2.32099     0.00000     0.00000     0.00000
  Kinetic   953.00462   934.65216   916.82067     2.90939    -1.63849     0.72641
  Fock        0.00000     0.00000     0.00000     0.00000     0.00000     0.00000
  -------------------------------------------------------------------------------------
  Total      -0.00872     0.00084     0.00755     0.00000     0.00000     0.00000
  in kB      -0.07198     0.00691     0.06237     0.00000     0.00000     0.00000
  external pressure =        0.00 kB  Pullay stress =        0.00 kB


 VOLUME and BASIS-vectors are now :
 -----------------------------------------------------------------------------
  energy-cutoff  :      318.61
  volume of cell :      194.04
      direct lattice vectors                 reciprocal lattice vectors
     5.028573006  0.000000000  0.000000000     0.198863574  0.000000000  0.000000000
     0.000000000  5.596341509  0.000000000     0.000000000  0.178688166  0.000000000
     0.000000000  0.000000000  6.895054120     0.000000000  0.000000000  0.145031494

  length of vectors
     5.028573006  5.596341509  6.895054120     0.198863574  0.178688166  0.145031494


 FORCES acting on ions
    electron-ion (+dipol)            ewald-force                    non-local-force                 convergence-correction
 -----------------------------------------------------------------------------------------------
   0.238E+01 -.222E+01 0.632E-06   -.412E+01 -.437E+01 0.241E-13   0.175E+01 0.658E+01 0.173E-17   0.278E-03 0.783E-03 -.231E-12
   -.238E+01 0.222E+01 -.632E-06   0.412E+01 0.437E+01 0.886E-14   -.175E+01 -.658E+01 -.173E-17   -.278E-03 -.783E-03 -.854E-13
   0.238E+01 0.222E+01 -.266E-06   -.412E+01 0.437E+01 0.101E-13   0.175E+01 -.658E+01 0.130E-17   0.278E-03 -.783E-03 0.431E-12
   -.238E+01 -.222E+01 0.266E-06   0.412E+01 -.437E+01 -.104E-13   -.175E+01 0.658E+01 -.130E-17   -.278E-03 0.783E-03 0.370E-12
   -.123E+02 0.252E+02 0.320E+02   0.126E+02 -.258E+02 -.336E+02   -.350E+00 0.595E+00 0.161E+01   0.291E-03 -.386E-03 0.923E-03
   0.123E+02 -.252E+02 0.320E+02   -.126E+02 0.258E+02 -.336E+02   0.350E+00 -.595E+00 0.161E+01   -.291E-03 0.386E-03 0.923E-03
   -.123E+02 -.252E+02 -.320E+02   0.126E+02 0.258E+02 0.336E+02   -.350E+00 -.595E+00 -.161E+01   0.291E-03 0.386E-03 -.923E-03
   0.123E+02 0.252E+02 -.320E+02   -.126E+02 -.258E+02 0.336E+02   0.350E+00 0.595E+00 -.161E+01   -.291E-03 -.386E-03 -.923E-03
   0.123E+02 -.252E+02 -.320E+02   -.126E+02 0.258E+02 0.336E+02   0.350E+00 -.595E+00 -.161E+01   -.291E-03 0.386E-03 -.923E-03
   -.123E+02 0.252E+02 -.320E+02   0.126E+02 -.258E+02 0.336E+02   -.350E+00 0.595E+00 -.161E+01   0.291E-03 -.386E-03 -.923E-03
   0.123E+02 0.252E+02 0.320E+02   -.126E+02 -.258E+02 -.336E+02   0.350E+00 0.595E+00 0.161E+01   -.291E-03 -.386E-03 0.923E-03
   -.123E+02 -.252E+02 0.320E+02   0.126E+02 0.258E+02 -.336E+02   -.350E+00 -.595E+00 0.161E+01   0.291E-03 0.386E-03 0.923E-03
   0.173E+02 -.766E+01 -.350E+02   -.188E+02 0.890E+01 0.354E+02   0.155E+01 -.123E+01 -.429E+00   -.152E-03 -.210E-03 0.210E-03
   -.173E+02 0.766E+01 -.350E+02   0.188E+02 -.890E+01 0.354E+02   -.155E+01 0.123E+01 -.429E+00   0.152E-03 0.210E-03 0.210E-03
   0.173E+02 0.766E+01 0.350E+02   -.188E+02 -.890E+01 -.354E+02   0.155E+01 0.123E+01 0.429E+00   -.152E-03 0.210E-03 -.210E-03
   -.173E+02 -.766E+01 0.350E+02   0.188E+02 0.890E+01 -.354E+02   -.155E+01 -.123E+01 0.429E+00   0.152E-03 -.210E-03 -.210E-03
   -.173E+02 0.766E+01 0.350E+02   0.188E+02 -.890E+01 -.354E+02   -.155E+01 0.123E+01 0.429E+00   0.152E-03 0.210E-03 -.210E-03
   0.173E+02 -.766E+01 0.350E+02   -.188E+02 0.890E+01 -.354E+02   0.155E+01 -.123E+01 0.429E+00   -.152E-03 -.210E-03 -.210E-03
   -.173E+02 -.766E+01 -.350E+02   0.188E+02 0.890E+01 0.354E+02   -.155E+01 -.123E+01 -.429E+00   0.152E-03 -.210E-03 0.210E-03
   0.173E+02 0.766E+01 -.350E+02   -.188E+02 -.890E+01 0.354E+02   0.155E+01 0.123E+01 -.429E+00   -.152E-03 0.210E-03 0.210E-03
   0.117E+02 -.365E+02 -.145E-06   -.145E+02 0.412E+02 -.475E-14   0.282E+01 -.470E+01 0.347E-17   0.104E-02 0.457E-03 -.325E-12
   -.117E+02 0.365E+02 0.145E-06   0.145E+02 -.412E+02 -.190E-13   -.282E+01 0.470E+01 -.347E-17   -.104E-02 -.457E-03 -.474E-12
   0.117E+02 0.365E+02 0.470E-07   -.145E+02 -.412E+02 -.143E-13   0.282E+01 0.470E+01 -.347E-17   0.104E-02 -.457E-03 0.471E-12
   -.117E+02 -.365E+02 -.470E-07   0.145E+02 0.412E+02 0.330E-14   -.282E+01 -.470E+01 0.347E-17   -.104E-02 0.457E-03 0.359E-12
   0.377E+02 -.326E+01 -.574E-06   -.430E+02 0.362E+01 -.313E-14   0.534E+01 -.360E+00 0.000E+00   -.190E-03 -.970E-03 -.402E-12
   -.377E+02 0.326E+01 0.574E-06   0.430E+02 -.362E+01 0.425E-14   -.534E+01 0.360E+00 0.000E+00   0.190E-03 0.970E-03 -.524E-12
   0.377E+02 0.326E+01 0.837E-06   -.430E+02 -.362E+01 0.153E-13   0.534E+01 0.360E+00 0.434E-18   -.190E-03 0.970E-03 0.414E-12
   -.377E+02 -.326E+01 -.837E-06   0.430E+02 0.362E+01 -.962E-14   -.534E+01 -.360E+00 -.434E-18   0.190E-03 -.970E-03 0.371E-12
 -----------------------------------------------------------------------------------------------
   -.379E-10 0.228E-10 -.401E-12   0.711E-14 -.506E-13 -.635E-13   0.000E+00 -.888E-15 0.444E-15   0.235E-12 -.113E-12 -.153E-12
 
 
 POSITION                                       TOTAL-FORCE (eV/Angst)
 -----------------------------------------------------------------------------------
      0.85672      2.91706      0.00000         0.000534     -0.000059      0.000000
      4.17185      2.67929      0.00000        -0.000534      0.000059      0.000000
      3.37101      5.47746      3.44753         0.000534      0.000059      0.000000
      1.65756      0.11888      3.44753        -0.000534     -0.000059      0.000000
      0.80740      1.57274      2.57964         0.000341      0.001344     -0.000017
      4.22118      4.02360      2.57964        -0.000341     -0.001344     -0.000017
      3.32168      1.22543      0.86788         0.000341     -0.001344      0.000017
      1.70689      4.37091      0.86788        -0.000341      0.001344      0.000017
      4.22118      4.02360      4.31541        -0.000341     -0.001344      0.000017
      0.80740      1.57274      4.31541         0.000341      0.001344      0.000017
      1.70689      4.37091      6.02717        -0.000341      0.001344     -0.000017
      3.32168      1.22543      6.02717         0.000341     -0.001344     -0.000017
      1.74590      0.51715      1.44535        -0.000748      0.002394      0.001022
      3.28267      5.07919      1.44535         0.000748     -0.002394      0.001022
      4.26019      2.28102      2.00217        -0.000748     -0.002394     -0.001022
      0.76839      3.31532      2.00217         0.000748      0.002394     -0.001022
      3.28267      5.07919      5.44970         0.000748     -0.002394     -0.001022
      1.74590      0.51715      5.44970        -0.000748      0.002394     -0.001022
      0.76839      3.31532      4.89288         0.000748      0.002394      0.001022
      4.26019      2.28102      4.89288        -0.000748     -0.002394      0.001022
      1.76996      1.51845      0.00000        -0.000188     -0.001089      0.000000
      3.25861      4.07789      0.00000         0.000188      0.001089      0.000000
      4.28425      1.27972      3.44753        -0.000188      0.001089      0.000000
      0.74432      4.31662      3.44753         0.000188     -0.001089      0.000000
      0.82650      0.04538      0.00000         0.001219      0.001330      0.000000
      4.20207      5.55096      0.00000        -0.001219     -0.001330      0.000000
      3.34079      2.75279      3.44753         0.001219     -0.001330      0.000000
      1.68778      2.84355      3.44753        -0.001219      0.001330      0.000000
 -----------------------------------------------------------------------------------
    total drift:                                0.000000      0.000000      0.000000


--------------------------------------------------------------------------------------------------------



  FREE ENERGIE OF THE ION-ELECTRON SYSTEM (eV)
  ---------------------------------------------------
  free  energy   TOTEN  =      -186.740209 eV

  energy  without entropy=     -186.745090  energy(sigma->0) =     -186.741836
 
 d Force = 0.9397571E-05[ 0.529E-05, 0.135E-04]  d Energy = 0.9472542E-05-0.750E-07
 d Force = 0.6743296E-02[ 0.673E-02, 0.675E-02]  d Ewald  = 0.1822465E-01-0.115E-01


--------------------------------------------------------------------------------------------------------


    POTLOK:  cpu time    0.05: real time    0.05


--------------------------------------------------------------------------------------------------------


 Conjugate gradient step on ions:
 trial-energy change:   -0.000009  1 .order   -0.000009   -0.000014   -0.000005
  (g-gl).g = 0.115E-04      g.g   = 0.107E-04  gl.gl    = 0.800E-04
 g(Force)  = 0.101E-04   g(Stress)= 0.630E-06 ortho     =-0.585E-07
 gamma     =   0.14364
 trial     =   1.27833
 opt step  =   2.08788  (harmonic =   2.08788) maximal distance =0.00025169
 next E    =  -186.740211   (d E  =  -0.00001)


--------------------------------------------------------------------------------------------------------


     LOOP+:  cpu time   11.26: real time   11.34
    4ORBIT:  cpu time    0.00: real time    0.00

 total amount of memory used by VASP on root node    49529. kBytes
========================================================================

   base      :      30000. kBytes
   nonlr-proj:       3196. kBytes
   fftplans  :       1477. kBytes
   grid      :       2795. kBytes
   one-center:         86. kBytes
   wavefun   :      11975. kBytes
 
  
  
 General timing and accounting informations for this job:
 ========================================================
  
                  Total CPU time used (sec):      214.720
                            User time (sec):      214.090
                          System time (sec):        0.630
                         Elapsed time (sec):      216.196
  
                   Maximum memory used (kb):       66488.
                   Average memory used (kb):           0.
  
                          Minor page faults:        17387
                          Major page faults:            0
                 Voluntary context switches:         1041
