 vasp.5.2.12 26May11 complex 
 executed on             LinuxIFC date 2012.05.25  11:43:34
 running on    4 nodes
 distr:  one band on    1 nodes,    4 groups


--------------------------------------------------------------------------------------------------------


 INCAR:
 POTCAR:    PAW_PBE B 06Sep2000                   
 POTCAR:    PAW_PBE B 06Sep2000                   
   VRHFIN =B: s2p1                                                              
   LEXCH  = PE                                                                  
   EATOM  =    71.1703 eV,    5.2309 Ry                                         
                                                                                
   TITEL  = PAW_PBE B 06Sep2000                                                 
   LULTRA =        F    use ultrasoft PP ?                                      
   IUNSCR =        1    unscreen: 0-lin 1-nonlin 2-no                           
   RPACOR =    1.200    partial core radius                                     
   POMASS =   10.811; ZVAL   =    3.000    mass and valenz                      
   RCORE  =    1.700    outmost cutoff radius                                   
   RWIGS  =    1.710; RWIGS  =    0.905    wigner-seitz radius (au A)           
   ENMAX  =  318.614; ENMIN  =  238.960 eV                                      
   ICORE  =        2    local potential                                         
   LCOR   =        T    correct aug charges                                     
   LPAW   =        T    paw PP                                                  
   EAUG   =  535.514                                                            
   DEXC   =    0.000                                                            
   RMAX   =    1.732    core radius for proj-oper                               
   RAUG   =    1.300    factor for augmentation sphere                          
   RDEP   =    1.757    radius for radial grids                                 
   RDEPT  =    1.436    core radius for aug-charge                              
                                                                                
   Atomic configuration                                                         
    4 entries                                                                   
     n  l   j            E        occ.                                          
     1  0  0.50      -180.5896   2.0000                                         
     2  0  0.50        -9.4431   2.0000                                         
     2  1  0.50        -3.6068   1.0000                                         
     3  2  1.50        -4.0817   0.0000                                         
   Description                                                                  
     l       E           TYP  RCUT    TYP  RCUT                                 
     0     -9.4430752     23  1.500                                             
     0      0.8675899     23  1.500                                             
     1     -3.6067955     23  1.700                                             
     1      6.1086146     23  1.700                                             
     2     -4.0817478      7  1.700                                             
  local pseudopotential read in
  partial core-charges read in
  partial kinetic energy density read in
  atomic valenz-charges read in
  non local Contribution for L=           0  read in
    real space projection operators read in
  non local Contribution for L=           0  read in
    real space projection operators read in
  non local Contribution for L=           1  read in
    real space projection operators read in
  non local Contribution for L=           1  read in
    real space projection operators read in
    PAW grid and wavefunctions read in
 
   number of l-projection  operators is LMAX  =           4
   number of lm-projection operators is LMMAX =           8
 
 Optimization of the real space projectors (new method)

 maximal supplied QI-value         = 22.11
 optimisation between [QCUT,QGAM] = [  9.07, 18.13] = [ 23.01, 92.04] Ry 
 Optimized for a Real-space Cutoff    1.46 Angstroem

   l    n(q)    QCUT    max X(q) W(low)/X(q) W(high)/X(q)  e(spline) 
   0      8     9.065    53.033    0.38E-03    0.70E-03    0.20E-06
   0      8     9.065    34.740    0.38E-03    0.69E-03    0.20E-06
   1      7     9.065    30.949    0.34E-03    0.21E-03    0.23E-06
   1      7     9.065    19.518    0.31E-03    0.17E-03    0.22E-06
  PAW_PBE B 06Sep2000                   :
 energy of atom  1       EATOM=  -71.1703
 kinetic energy error for atom=    0.0071 (will be added to EATOM!!)
 
 
 POSCAR: XYZ: B14                                
  positions in direct lattice
  velocities in cartesian coordinates
 exchange correlation table for  LEXCH =        8
   RHO(1)=    0.500       N(1)  =     2000
   RHO(2)=  100.500       N(2)  =     4000
 


--------------------------------------------------------------------------------------------------------


 ion  position               nearest neighbor table
   1  0.808  0.301  0.808-  14 1.67   4 1.75   5 1.75   9 1.78   8 1.78  12 1.81
   2  0.808  0.808  0.301-  14 1.67   6 1.75   4 1.75   9 1.78   7 1.78  11 1.81
   3  0.301  0.808  0.808-  14 1.67   6 1.75   5 1.75   7 1.78   8 1.78  10 1.81
   4  0.699  0.192  0.192-  13 1.67   1 1.75   2 1.75  12 1.78  11 1.78   9 1.81
   5  0.192  0.192  0.699-  13 1.67   3 1.75   1 1.75  12 1.78  10 1.78   8 1.81
   6  0.192  0.699  0.192-  13 1.67   3 1.75   2 1.75  10 1.78  11 1.78   7 1.81
   7  0.994  0.668  0.994-  12 1.71   3 1.78   2 1.78   6 1.81   8 1.86   9 1.86
   8  0.994  0.994  0.668-  11 1.71   3 1.78   1 1.78   5 1.81   9 1.86   7 1.86
   9  0.668  0.994  0.994-  10 1.71   1 1.78   2 1.78   4 1.81   8 1.86   7 1.86
  10  0.332  0.006  0.006-   9 1.71   6 1.78   5 1.78   3 1.81  11 1.86  12 1.86
  11  0.006  0.006  0.332-   8 1.71   6 1.78   4 1.78   2 1.81  10 1.86  12 1.86
  12  0.006  0.332  0.006-   7 1.71   4 1.78   5 1.78   1 1.81  11 1.86  10 1.86
  13  0.369  0.369  0.369-   5 1.67   4 1.67   6 1.67
  14  0.631  0.631  0.631-   2 1.67   1 1.67   3 1.67
 
  LATTYP: Found a trigonal (rhomboedric) cell.
 ALAT       =     5.2292339585
 COS(alpha) =     0.4070707771
  
  Lattice vectors:
  
 A1 = (   2.8472427952,   1.6438563942,   4.0664274755)
 A2 = (  -2.8472427952,   1.6438563942,   4.0664274755)
 A3 = (   0.0000000000,  -3.2877127883,   4.0664274755)
 Subroutine PRICEL returns:
 Original cell was already a primitive cell.
 

Analysis of symmetry for initial positions (statically):

 Routine SETGRP: Setting up the symmetry group for a 
 trigonal (rhombohedral) supercell.


 Subroutine GETGRP returns: Found 12 space group operations
 (whereof 12 operations were pure point group operations)
 out of a pool of 12 trial point group operations.


The static configuration has the point symmetry D_3d.

Analysis of symmetry for dynamics (positions and initial velocities):

 Subroutine DYNSYM returns: Found 12 space group operations
 (whereof 12 operations were pure point group operations)
 out of a pool of 12 trial space group operations
 (whereof 12 operations were pure point group operations)
 and found also     1 'primitive' translations


The dynamic configuration has the point symmetry D_3d.
 
 
 KPOINTS: Automatic mesh                          

Automatic generation of k-mesh.
 
 Subroutine IBZKPT returns following result:
 ===========================================
 
 Found     65 irreducible k-points:
 
 Following reciprocal coordinates:
            Coordinates               Weight
  0.000000  0.000000  0.000000      1.000000
  0.125000  0.000000  0.000000      6.000000
  0.250000  0.000000  0.000000      6.000000
  0.375000  0.000000  0.000000      6.000000
  0.500000  0.000000  0.000000      3.000000
  0.125000  0.125000  0.000000      6.000000
  0.250000  0.125000  0.000000     12.000000
  0.375000  0.125000  0.000000     12.000000
  0.500000  0.125000  0.000000     12.000000
 -0.375000  0.125000  0.000000     12.000000
 -0.250000  0.125000  0.000000     12.000000
 -0.125000  0.125000  0.000000      6.000000
  0.250000  0.250000  0.000000      6.000000
  0.375000  0.250000  0.000000     12.000000
  0.500000  0.250000  0.000000     12.000000
 -0.375000  0.250000  0.000000     12.000000
 -0.250000  0.250000  0.000000      6.000000
  0.375000  0.375000  0.000000      6.000000
  0.500000  0.375000  0.000000     12.000000
 -0.375000  0.375000  0.000000      6.000000
  0.500000  0.500000  0.000000      3.000000
  0.125000  0.125000  0.125000      2.000000
  0.250000  0.125000  0.125000      6.000000
  0.375000  0.125000  0.125000      6.000000
  0.500000  0.125000  0.125000      6.000000
 -0.375000  0.125000  0.125000      6.000000
 -0.250000  0.125000  0.125000      6.000000
 -0.125000  0.125000  0.125000      6.000000
  0.250000  0.250000  0.125000      6.000000
  0.375000  0.250000  0.125000     12.000000
  0.500000  0.250000  0.125000     12.000000
 -0.375000  0.250000  0.125000     12.000000
 -0.250000  0.250000  0.125000     12.000000
 -0.125000  0.250000  0.125000     12.000000
  0.375000  0.375000  0.125000      6.000000
  0.500000  0.375000  0.125000     12.000000
 -0.375000  0.375000  0.125000     12.000000
 -0.250000  0.375000  0.125000     12.000000
 -0.125000  0.375000  0.125000     12.000000
  0.500000  0.500000  0.125000      6.000000
 -0.375000  0.500000  0.125000     12.000000
 -0.250000  0.500000  0.125000     12.000000
 -0.125000  0.500000  0.125000      6.000000
 -0.375000 -0.375000  0.125000      6.000000
 -0.250000 -0.375000  0.125000     12.000000
 -0.250000 -0.250000  0.125000      6.000000
  0.250000  0.250000  0.250000      2.000000
  0.375000  0.250000  0.250000      6.000000
  0.500000  0.250000  0.250000      6.000000
 -0.375000  0.250000  0.250000      6.000000
 -0.250000  0.250000  0.250000      6.000000
  0.375000  0.375000  0.250000      6.000000
  0.500000  0.375000  0.250000     12.000000
 -0.375000  0.375000  0.250000     12.000000
 -0.250000  0.375000  0.250000     12.000000
  0.500000  0.500000  0.250000      6.000000
 -0.375000  0.500000  0.250000     12.000000
 -0.250000  0.500000  0.250000      6.000000
 -0.375000 -0.375000  0.250000      6.000000
  0.375000  0.375000  0.375000      2.000000
  0.500000  0.375000  0.375000      6.000000
 -0.375000  0.375000  0.375000      6.000000
  0.500000  0.500000  0.375000      6.000000
 -0.375000  0.500000  0.375000      6.000000
  0.500000  0.500000  0.500000      1.000000
 
 Following cartesian coordinates:
            Coordinates               Weight
  0.000000  0.000000  0.000000      1.000000
  0.021951  0.012673  0.010247      6.000000
  0.043902  0.025347  0.020493      6.000000
  0.065853  0.038020  0.030740      6.000000
  0.087804  0.050694  0.040986      3.000000
  0.000000  0.025347  0.020493      6.000000
  0.021951  0.038020  0.030740     12.000000
  0.043902  0.050694  0.040986     12.000000
  0.065853  0.063367  0.051233     12.000000
 -0.087804 -0.025347 -0.020493     12.000000
 -0.065853 -0.012673 -0.010247     12.000000
 -0.043902  0.000000  0.000000      6.000000
  0.000000  0.050694  0.040986      6.000000
  0.021951  0.063367  0.051233     12.000000
  0.043902  0.076041  0.061479     12.000000
 -0.109755 -0.012673 -0.010247     12.000000
 -0.087804  0.000000  0.000000      6.000000
  0.000000  0.076041  0.061479      6.000000
  0.021951  0.088714  0.071726     12.000000
 -0.131706  0.000000  0.000000      6.000000
  0.000000  0.101388  0.081972      3.000000
  0.000000  0.000000  0.030740      2.000000
  0.021951  0.012673  0.040986      6.000000
  0.043902  0.025347  0.051233      6.000000
  0.065853  0.038020  0.061479      6.000000
 -0.087804 -0.050694 -0.010247      6.000000
 -0.065853 -0.038020  0.000000      6.000000
 -0.043902 -0.025347  0.010247      6.000000
  0.000000  0.025347  0.051233      6.000000
  0.021951  0.038020  0.061479     12.000000
  0.043902  0.050694  0.071726     12.000000
 -0.109755 -0.038020  0.000000     12.000000
 -0.087804 -0.025347  0.010247     12.000000
 -0.065853 -0.012673  0.020493     12.000000
  0.000000  0.050694  0.071726      6.000000
  0.021951  0.063367  0.081972     12.000000
 -0.131706 -0.025347  0.010247     12.000000
 -0.109755 -0.012673  0.020493     12.000000
 -0.087804  0.000000  0.030740     12.000000
  0.000000  0.076041  0.092219      6.000000
 -0.153657 -0.012673  0.020493     12.000000
 -0.131706  0.000000  0.030740     12.000000
 -0.109755  0.012673  0.040986      6.000000
  0.000000 -0.101388 -0.051233      6.000000
  0.021951 -0.088714 -0.040986     12.000000
  0.000000 -0.076041 -0.030740      6.000000
  0.000000  0.000000  0.061479      2.000000
  0.021951  0.012673  0.071726      6.000000
  0.043902  0.025347  0.081972      6.000000
 -0.109755 -0.063367  0.010247      6.000000
 -0.087804 -0.050694  0.020493      6.000000
  0.000000  0.025347  0.081972      6.000000
  0.021951  0.038020  0.092219     12.000000
 -0.131706 -0.050694  0.020493     12.000000
 -0.109755 -0.038020  0.030740     12.000000
  0.000000  0.050694  0.102465      6.000000
 -0.153657 -0.038020  0.030740     12.000000
 -0.131706 -0.025347  0.040986      6.000000
  0.000000 -0.126735 -0.040986      6.000000
  0.000000  0.000000  0.092219      2.000000
  0.021951  0.012673  0.102465      6.000000
 -0.131706 -0.076041  0.030740      6.000000
  0.000000  0.025347  0.112712      6.000000
 -0.153657 -0.063367  0.040986      6.000000
  0.000000  0.000000  0.122958      1.000000
 


--------------------------------------------------------------------------------------------------------




 Dimension of arrays:
   k-points           NKPTS =     65   k-points in BZ     NKDIM =     65   number of bands    NBANDS=     32
   number of dos      NEDOS =    301   number of ions     NIONS =     14
   non local maximal  LDIM  =      4   non local SUM 2l+1 LMDIM =      8
   total plane-waves  NPLWV =  13824
   max r-space proj   IRMAX =   1621   max aug-charges    IRDMAX=   2087
   dimension x,y,z NGX =    24 NGY =   24 NGZ =   24
   dimension x,y,z NGXF=    48 NGYF=   48 NGZF=   48
   support grid    NGXF=    48 NGYF=   48 NGZF=   48
   ions per type =              14
 NGX,Y,Z   is equivalent  to a cutoff of   7.63,  7.63,  7.63 a.u.
 NGXF,Y,Z  is equivalent  to a cutoff of  15.26, 15.26, 15.26 a.u.


 I would recommend the setting:
   dimension x,y,z NGX =    23 NGY =   23 NGZ =   23
 SYSTEM =  B14                                     
 POSCAR =  XYZ: B14                                

 Startparameter for this run:
   NWRITE =      2    write-flag & timer
   PREC   = normal    normal or accurate (medium, high low for compatibility)
   ISTART =      0    job   : 0-new  1-cont  2-samecut
   ICHARG =      2    charge: 1-file 2-atom 10-const
   ISPIN  =      1    spin polarized calculation?
   LNONCOLLINEAR =      F non collinear calculations
   LSORBIT =      F    spin-orbit coupling
   INIWAV =      1    electr: 0-lowe 1-rand  2-diag
   LASPH  =      F    aspherical Exc in radial PAW
   METAGGA=      F    non-selfconsistent MetaGGA calc.

 Electronic Relaxation 1
   ENCUT  =  318.6 eV  23.42 Ry    4.84 a.u.   7.61  7.61  7.61*2*pi/ulx,y,z
   ENINI  =  318.6     initial cutoff
   ENAUG  =  535.5 eV  augmentation charge cutoff
   NELM   =     40;   NELMIN=  2; NELMDL=  0     # of ELM steps 
   EDIFF  = 0.1E-05   stopping-criterion for ELM
   LREAL  =      T    real-space projection
   LCOMPAT=      F    compatible to vasp.4.4
   GGA_COMPAT  = T    GGA compatible to vasp.4.4-vasp.4.6
   LMAXPAW     = -100 max onsite density
   LMAXMIX     =    2 max onsite mixed and CHGCAR
   VOSKOWN=      0    Vosko Wilk Nusair interpolation
   ROPT   =   -0.00050
 Ionic relaxation
   EDIFFG = 0.1E-04   stopping-criterion for IOM
   NSW    =     10    number of steps for IOM
   NBLOCK =      1;   KBLOCK =     10    inner block; outer block 
   IBRION =      2    ionic relax: 0-MD 1-quasi-New 2-CG
   NFREE  =      1    steps in history (QN), initial steepest desc. (CG)
   ISIF   =      3    stress and relaxation
   IWAVPR =     11    prediction:  0-non 1-charg 2-wave 3-comb
   ISYM   =      2    0-nonsym 1-usesym 2-fastsym
   LCORR  =      T    Harris-Foulkes like correction to forces

   POTIM  = 0.2500    time-step for ionic-motion
   TEIN   =    0.0    initial temperature
   TEBEG  =    0.0;   TEEND  =   0.0 temperature during run
   SMASS  =  -3.00    Nose mass-parameter (am)
   estimated Nose-frequenzy (Omega)   =  0.10E-29 period in steps =****** mass=  -0.625E-27a.u.
   SCALEE = 1.0000    scale energy and forces
   NPACO  =    256;   APACO  = 16.0  distance and # of slots for P.C.
   PSTRESS=    0.0 pullay stress

  Mass of Ions in am
   POMASS =  10.81
  Ionic Valenz
   ZVAL   =   3.00
  Atomic Wigner-Seitz radii
   RWIGS  =  -1.00
  virtual crystal weights 
   VCA    =   1.00
   NELECT =      42.0000    total number of electrons
   NUPDOWN=      -1.0000    fix difference up-down

 DOS related values:
   EMIN   =  10.00;   EMAX   =-10.00  energy-range for DOS
   EFERMI =   0.00
   ISMEAR =     1;   SIGMA  =   0.20  broadening in eV -4-tet -1-fermi 0-gaus

 Electronic relaxation 2 (details)
   IALGO  =     38    algorithm
   LDIAG  =      T    sub-space diagonalisation (order eigenvalues)
   LSUBROT=      T    optimize rotation matrix (better conditioning)
   TURBO    =      0    0=normal 1=particle mesh
   IRESTART =      0    0=no restart 2=restart with 2 vectors
   NREBOOT  =      0    no. of reboots
   NMIN     =      0    reboot dimension
   EREF     =   0.00    reference energy to select bands
   IMIX   =      4    mixing-type and parameters
     AMIX     =   0.40;   BMIX     =  1.00
     AMIX_MAG =   1.60;   BMIX_MAG =  1.00
     AMIN     =   0.10
     WC   =   100.;   INIMIX=   1;  MIXPRE=   1

 Intra band minimization:
   WEIMIN = 0.0010     energy-eigenvalue tresh-hold
   EBREAK =  0.86E-08  absolut break condition
   DEPER  =   0.30     relativ break condition  

   TIME   =   0.40     timestep for ELM

  volume/ion in A,a.u.               =       8.16        55.05
  Fermi-wavevector in a.u.,A,eV,Ry     =   1.172934  2.216525 18.718555  1.375775
  Thomas-Fermi vector in A             =   2.309355
 
 Write flags
   LWAVE  =      F    write WAVECAR
   LCHARG =      F    write CHGCAR
   LVTOT  =      F    write LOCPOT, total local potential
   LVHAR  =      F    write LOCPOT, Hartree potential only
   LELF   =      F    write electronic localiz. function (ELF)
   LORBIT =      0    0 simple, 1 ext, 2 COOP (PROOUT)


 Dipole corrections
   LMONO  =      F    monopole corrections only (constant potential shift)
   LDIPOL =      F    correct potential (dipole corrections)
   IDIPOL =      0    1-x, 2-y, 3-z, 4-all directions 
   EPSILON=  1.0000000 bulk dielectric constant

 Exchange correlation treatment:
   GGA     =    --    GGA type
   LEXCH   =     8    internal setting for exchange type
   VOSKOWN=      0    Vosko Wilk Nusair interpolation
   LHFCALC =     F    Hartree Fock is set to
   LHFONE  =     F    Hartree Fock one center treatment
   AEXX    =    0.0000 exact exchange contribution

 Linear response parameters
   LEPSILON=     F    determine dielectric tensor
   LRPA    =     F    only Hartree local field effects (RPA)
   LNABLA  =     F    use nabla operator in PAW spheres
   LVEL    =     F    velocity operator in full k-point grid
   LINTERFAST=   F  fast interpolation
   KINTER  =     0    interpolate to denser k-point grid
   CSHIFT  =0.1000    complex shift for real part using Kramers Kronig
   OMEGAMAX=  -1.0    maximum frequency
   RTIME   =    0.100 relaxation time in fs

 Orbital magnetization related:
   ORBITALMAG=     F  switch on orbital magnetization
   LCHIMAG   =     F  perturbation theory with respect to B field
   DQ        =  0.001000  dq finite difference perturbation B field



--------------------------------------------------------------------------------------------------------


 conjugate gradient relaxation of ions
 charge density and potential will be updated during run
 non-spin polarized calculation
 Variant of blocked Davidson
 Davidson routine will perform the subspace rotation
 perform sub-space diagonalisation
    after iterative eigenvector-optimisation
 modified Broyden-mixing scheme, WC =      100.0
 initial mixing is a Kerker type mixing with AMIX =  0.4000 and BMIX =      1.0000
 Hartree-type preconditioning will be used
 using additional bands           11
 real space projection scheme for non local part
 use partial core corrections
 calculate Harris-corrections to forces 
   (improved forces if not selfconsistent)
 use gradient corrections 
 use of overlap-Matrix (Vanderbilt PP)
 Methfessel and Paxton  Order N= 1 SIGMA  =   0.20


--------------------------------------------------------------------------------------------------------


  energy-cutoff  :      318.61
  volume of cell :      114.20
      direct lattice vectors                 reciprocal lattice vectors
     2.847242795  1.643856394  4.066427475     0.175608487  0.101387607  0.081972035
    -2.847242795  1.643856394  4.066427475    -0.175608487  0.101387607  0.081972035
     0.000000000 -3.287712788  4.066427475     0.000000000 -0.202775215  0.081972035

  length of vectors
     5.229233959  5.229233959  5.229233958     0.218717174  0.218717174  0.218717174


 
 k-points in units of 2pi/SCALE and weight: Automatic mesh                          
   0.00000000  0.00000000  0.00000000       0.002
   0.02195106  0.01267345  0.01024650       0.012
   0.04390212  0.02534690  0.02049301       0.012
   0.06585318  0.03802035  0.03073951       0.012
   0.08780424  0.05069380  0.04098602       0.006
   0.00000000  0.02534690  0.02049301       0.012
   0.02195106  0.03802035  0.03073951       0.023
   0.04390212  0.05069380  0.04098602       0.023
   0.06585318  0.06336725  0.05123252       0.023
  -0.08780424 -0.02534690 -0.02049301       0.023
  -0.06585318 -0.01267345 -0.01024650       0.023
  -0.04390212  0.00000000  0.00000000       0.012
   0.00000000  0.05069380  0.04098602       0.012
   0.02195106  0.06336725  0.05123252       0.023
   0.04390212  0.07604071  0.06147903       0.023
  -0.10975530 -0.01267345 -0.01024650       0.023
  -0.08780424  0.00000000  0.00000000       0.012
   0.00000000  0.07604071  0.06147903       0.012
   0.02195106  0.08871416  0.07172553       0.023
  -0.13170637  0.00000000  0.00000000       0.012
   0.00000000  0.10138761  0.08197203       0.006
   0.00000000  0.00000000  0.03073951       0.004
   0.02195106  0.01267345  0.04098602       0.012
   0.04390212  0.02534690  0.05123252       0.012
   0.06585318  0.03802035  0.06147903       0.012
  -0.08780424 -0.05069380 -0.01024650       0.012
  -0.06585318 -0.03802035  0.00000000       0.012
  -0.04390212 -0.02534690  0.01024650       0.012
   0.00000000  0.02534690  0.05123252       0.012
   0.02195106  0.03802035  0.06147903       0.023
   0.04390212  0.05069380  0.07172553       0.023
  -0.10975530 -0.03802035  0.00000000       0.023
  -0.08780424 -0.02534690  0.01024650       0.023
  -0.06585318 -0.01267345  0.02049301       0.023
   0.00000000  0.05069380  0.07172553       0.012
   0.02195106  0.06336725  0.08197203       0.023
  -0.13170637 -0.02534690  0.01024650       0.023
  -0.10975530 -0.01267345  0.02049301       0.023
  -0.08780424  0.00000000  0.03073951       0.023
   0.00000000  0.07604071  0.09221854       0.012
  -0.15365743 -0.01267345  0.02049301       0.023
  -0.13170637  0.00000000  0.03073951       0.023
  -0.10975530  0.01267345  0.04098602       0.012
   0.00000000 -0.10138761 -0.05123252       0.012
   0.02195106 -0.08871416 -0.04098602       0.023
   0.00000000 -0.07604071 -0.03073951       0.012
   0.00000000  0.00000000  0.06147903       0.004
   0.02195106  0.01267345  0.07172553       0.012
   0.04390212  0.02534690  0.08197203       0.012
  -0.10975530 -0.06336725  0.01024650       0.012
  -0.08780424 -0.05069380  0.02049301       0.012
   0.00000000  0.02534690  0.08197203       0.012
   0.02195106  0.03802035  0.09221854       0.023
  -0.13170637 -0.05069380  0.02049301       0.023
  -0.10975530 -0.03802035  0.03073951       0.023
   0.00000000  0.05069380  0.10246504       0.012
  -0.15365743 -0.03802035  0.03073951       0.023
  -0.13170637 -0.02534690  0.04098602       0.012
   0.00000000 -0.12673451 -0.04098602       0.012
   0.00000000  0.00000000  0.09221854       0.004
   0.02195106  0.01267345  0.10246504       0.012
  -0.13170637 -0.07604071  0.03073951       0.012
   0.00000000  0.02534690  0.11271155       0.012
  -0.15365743 -0.06336725  0.04098602       0.012
   0.00000000  0.00000000  0.12295805       0.002
 
 k-points in reciprocal lattice and weights: Automatic mesh                          
   0.00000000  0.00000000  0.00000000       0.002
   0.12500000  0.00000000  0.00000000       0.012
   0.25000000  0.00000000  0.00000000       0.012
   0.37500000  0.00000000  0.00000000       0.012
   0.50000000  0.00000000  0.00000000       0.006
   0.12500000  0.12500000  0.00000000       0.012
   0.25000000  0.12500000  0.00000000       0.023
   0.37500000  0.12500000  0.00000000       0.023
   0.50000000  0.12500000  0.00000000       0.023
  -0.37500000  0.12500000  0.00000000       0.023
  -0.25000000  0.12500000  0.00000000       0.023
  -0.12500000  0.12500000  0.00000000       0.012
   0.25000000  0.25000000  0.00000000       0.012
   0.37500000  0.25000000  0.00000000       0.023
   0.50000000  0.25000000  0.00000000       0.023
  -0.37500000  0.25000000  0.00000000       0.023
  -0.25000000  0.25000000  0.00000000       0.012
   0.37500000  0.37500000  0.00000000       0.012
   0.50000000  0.37500000  0.00000000       0.023
  -0.37500000  0.37500000  0.00000000       0.012
   0.50000000  0.50000000  0.00000000       0.006
   0.12500000  0.12500000  0.12500000       0.004
   0.25000000  0.12500000  0.12500000       0.012
   0.37500000  0.12500000  0.12500000       0.012
   0.50000000  0.12500000  0.12500000       0.012
  -0.37500000  0.12500000  0.12500000       0.012
  -0.25000000  0.12500000  0.12500000       0.012
  -0.12500000  0.12500000  0.12500000       0.012
   0.25000000  0.25000000  0.12500000       0.012
   0.37500000  0.25000000  0.12500000       0.023
   0.50000000  0.25000000  0.12500000       0.023
  -0.37500000  0.25000000  0.12500000       0.023
  -0.25000000  0.25000000  0.12500000       0.023
  -0.12500000  0.25000000  0.12500000       0.023
   0.37500000  0.37500000  0.12500000       0.012
   0.50000000  0.37500000  0.12500000       0.023
  -0.37500000  0.37500000  0.12500000       0.023
  -0.25000000  0.37500000  0.12500000       0.023
  -0.12500000  0.37500000  0.12500000       0.023
   0.50000000  0.50000000  0.12500000       0.012
  -0.37500000  0.50000000  0.12500000       0.023
  -0.25000000  0.50000000  0.12500000       0.023
  -0.12500000  0.50000000  0.12500000       0.012
  -0.37500000 -0.37500000  0.12500000       0.012
  -0.25000000 -0.37500000  0.12500000       0.023
  -0.25000000 -0.25000000  0.12500000       0.012
   0.25000000  0.25000000  0.25000000       0.004
   0.37500000  0.25000000  0.25000000       0.012
   0.50000000  0.25000000  0.25000000       0.012
  -0.37500000  0.25000000  0.25000000       0.012
  -0.25000000  0.25000000  0.25000000       0.012
   0.37500000  0.37500000  0.25000000       0.012
   0.50000000  0.37500000  0.25000000       0.023
  -0.37500000  0.37500000  0.25000000       0.023
  -0.25000000  0.37500000  0.25000000       0.023
   0.50000000  0.50000000  0.25000000       0.012
  -0.37500000  0.50000000  0.25000000       0.023
  -0.25000000  0.50000000  0.25000000       0.012
  -0.37500000 -0.37500000  0.25000000       0.012
   0.37500000  0.37500000  0.37500000       0.004
   0.50000000  0.37500000  0.37500000       0.012
  -0.37500000  0.37500000  0.37500000       0.012
   0.50000000  0.50000000  0.37500000       0.012
  -0.37500000  0.50000000  0.37500000       0.012
   0.50000000  0.50000000  0.50000000       0.002
 
 position of ions in fractional coordinates (direct lattice) 
   0.80819373  0.30147664  0.80819373
   0.80819373  0.80819373  0.30147664
   0.30147664  0.80819373  0.80819373
   0.69852336  0.19180627  0.19180627
   0.19180627  0.19180627  0.69852336
   0.19180627  0.69852336  0.19180627
   0.99433287  0.66824902  0.99433287
   0.99433287  0.99433287  0.66824902
   0.66824902  0.99433287  0.99433287
   0.33175098  0.00566713  0.00566713
   0.00566713  0.00566713  0.33175098
   0.00566713  0.33175098  0.00566713
   0.36927815  0.36927815  0.36927815
   0.63072185  0.63072185  0.63072185
 
 position of ions in cartesian coordinates  (Angst):
   1.44274661 -0.83297014  7.79885529
   0.00000000  1.66594028  7.79885529
  -1.44274661 -0.83297014  7.79885529
   1.44274661  0.83297014  4.40042714
   0.00000000 -1.66594028  4.40042714
  -1.44274661  0.83297014  4.40042714
   0.92843987 -0.53603501 10.80415118
   0.00000000  1.07207002 10.80415118
  -0.92843987 -0.53603501 10.80415118
   0.92843987  0.53603501  1.39513125
   0.00000000 -1.07207002  1.39513125
  -0.92843987  0.53603501  1.39513125
   0.00000000  0.00000000  4.50492840
   0.00000000  0.00000000  7.69435403
 


--------------------------------------------------------------------------------------------------------


 k-point  1 :  0.00000.00000.0000  plane waves:    1475
 k-point  2 :  0.12500.00000.0000  plane waves:    1485
 k-point  3 :  0.25000.00000.0000  plane waves:    1475
 k-point  4 :  0.37500.00000.0000  plane waves:    1473
 k-point  5 :  0.50000.00000.0000  plane waves:    1484
 k-point  6 :  0.12500.12500.0000  plane waves:    1487
 k-point  7 :  0.25000.12500.0000  plane waves:    1482
 k-point  8 :  0.37500.12500.0000  plane waves:    1467
 k-point  9 :  0.50000.12500.0000  plane waves:    1479
 k-point 10 :  -.37500.12500.0000  plane waves:    1473
 k-point 11 :  -.25000.12500.0000  plane waves:    1478
 k-point 12 :  -.12500.12500.0000  plane waves:    1479
 k-point 13 :  0.25000.25000.0000  plane waves:    1471
 k-point 14 :  0.37500.25000.0000  plane waves:    1477
 k-point 15 :  0.50000.25000.0000  plane waves:    1472
 k-point 16 :  -.37500.25000.0000  plane waves:    1474
 k-point 17 :  -.25000.25000.0000  plane waves:    1480
 k-point 18 :  0.37500.37500.0000  plane waves:    1477
 k-point 19 :  0.50000.37500.0000  plane waves:    1475
 k-point 20 :  -.37500.37500.0000  plane waves:    1478
 k-point 21 :  0.50000.50000.0000  plane waves:    1468
 k-point 22 :  0.12500.12500.1250  plane waves:    1473
 k-point 23 :  0.25000.12500.1250  plane waves:    1485
 k-point 24 :  0.37500.12500.1250  plane waves:    1474
 k-point 25 :  0.50000.12500.1250  plane waves:    1480
 k-point 26 :  -.37500.12500.1250  plane waves:    1483
 k-point 27 :  -.25000.12500.1250  plane waves:    1479
 k-point 28 :  -.12500.12500.1250  plane waves:    1487
 k-point 29 :  0.25000.25000.1250  plane waves:    1476
 k-point 30 :  0.37500.25000.1250  plane waves:    1470
 k-point 31 :  0.50000.25000.1250  plane waves:    1472
 k-point 32 :  -.37500.25000.1250  plane waves:    1466
 k-point 33 :  -.25000.25000.1250  plane waves:    1478
 k-point 34 :  -.12500.25000.1250  plane waves:    1484
 k-point 35 :  0.37500.37500.1250  plane waves:    1477
 k-point 36 :  0.50000.37500.1250  plane waves:    1478
 k-point 37 :  -.37500.37500.1250  plane waves:    1468
 k-point 38 :  -.25000.37500.1250  plane waves:    1474
 k-point 39 :  -.12500.37500.1250  plane waves:    1476
 k-point 40 :  0.50000.50000.1250  plane waves:    1466
 k-point 41 :  -.37500.50000.1250  plane waves:    1471
 k-point 42 :  -.25000.50000.1250  plane waves:    1475
 k-point 43 :  -.12500.50000.1250  plane waves:    1478
 k-point 44 :  -.3750-.37500.1250  plane waves:    1475
 k-point 45 :  -.2500-.37500.1250  plane waves:    1473
 k-point 46 :  -.2500-.25000.1250  plane waves:    1483
 k-point 47 :  0.25000.25000.2500  plane waves:    1467
 k-point 48 :  0.37500.25000.2500  plane waves:    1483
 k-point 49 :  0.50000.25000.2500  plane waves:    1468
 k-point 50 :  -.37500.25000.2500  plane waves:    1474
 k-point 51 :  -.25000.25000.2500  plane waves:    1475
 k-point 52 :  0.37500.37500.2500  plane waves:    1474
 k-point 53 :  0.50000.37500.2500  plane waves:    1472
 k-point 54 :  -.37500.37500.2500  plane waves:    1465
 k-point 55 :  -.25000.37500.2500  plane waves:    1474
 k-point 56 :  0.50000.50000.2500  plane waves:    1471
 k-point 57 :  -.37500.50000.2500  plane waves:    1464
 k-point 58 :  -.25000.50000.2500  plane waves:    1468
 k-point 59 :  -.3750-.37500.2500  plane waves:    1460
 k-point 60 :  0.37500.37500.3750  plane waves:    1479
 k-point 61 :  0.50000.37500.3750  plane waves:    1470
 k-point 62 :  -.37500.37500.3750  plane waves:    1469
 k-point 63 :  0.50000.50000.3750  plane waves:    1471
 k-point 64 :  -.37500.50000.3750  plane waves:    1472
 k-point 65 :  0.50000.50000.5000  plane waves:    1482

 maximum and minimum number of plane-waves per node :      1487     1460

 maximum number of plane-waves:      1487
 maximum index in each direction: 
   IXMAX=    7   IYMAX=    7   IZMAX=    7
   IXMIN=   -8   IYMIN=   -8   IZMIN=   -8

 WARNING: aliasing errors must be expected set NGX to  32 to avoid them
 WARNING: aliasing errors must be expected set NGY to  32 to avoid them
 WARNING: aliasing errors must be expected set NGZ to  32 to avoid them
 aliasing errors are usually negligible using standard VASP settings
 and one can safely disregard these warnings

 serial   3D FFT for wavefunctions
 parallel 3D FFT for charge:
    minimum data exchange during FFTs selected (reduces bandwidth)


 total amount of memory used by VASP on root node    48191. kBytes
========================================================================

   base      :      30000. kBytes
   nonlr-proj:       1885. kBytes
   fftplans  :       1025. kBytes
   grid      :       1926. kBytes
   one-center:         43. kBytes
   wavefun   :      13312. kBytes
 
 Broyden mixing: mesh for mixing (old mesh)
   NGX = 15   NGY = 15   NGZ = 15
  (NGX  = 48   NGY  = 48   NGZ  = 48)
  gives a total of   3375 points

 initial charge density was supplied:
 charge density of overlapping atoms calculated
 number of electron      42.0000000 magnetization 
 keeping initial charge density in first step


--------------------------------------------------------------------------------------------------------


 Maximum index for non-local projection operator         1539
 Maximum index for augmentation-charges          477 (set IRDMAX)


--------------------------------------------------------------------------------------------------------


 First call to EWALD:  gamma=   0.365
 Maximum number of real-space cells 3x 3x 3
 Maximum number of reciprocal cells 3x 3x 3

    FEWALD:  cpu time    0.01: real time    0.00


----------------------------------------- Iteration    1(   1)  ---------------------------------------


    POTLOK:  cpu time    0.02: real time    0.02
    SETDIJ:  cpu time    0.01: real time    0.01
     EDDAV:  cpu time    3.24: real time    3.26
       DOS:  cpu time    0.01: real time    0.00
    --------------------------------------------
      LOOP:  cpu time    3.28: real time    3.30

 eigenvalue-minimisations  :  4160
 total energy-change (2. order) : 0.4477604E+02  (-0.1439663E+04)
 number of electron      42.0000000 magnetization 
 augmentation part       42.0000000 magnetization 

 Free energy of the ion-electron system (eV)
  ---------------------------------------------------
  alpha Z        PSCENC =       118.07580069
  Ewald energy   TEWEN  =     -1085.09795308
  -1/2 Hartree   DENC   =      -122.89998533
  -exchange  EXHF       =         0.00000000
  -V(xc)+E(xc)   XCENC  =        99.21645013
  PAW double counting   =       608.99811708     -597.02363782
  entropy T*S    EENTRO =         0.00509921
  eigenvalues    EBANDS =        27.21789729
  atomic energy  EATOM  =       996.28425056
  ---------------------------------------------------
  free energy    TOTEN  =        44.77603873 eV

  energy without entropy =       44.77093952  energy(sigma->0) =       44.77433899


--------------------------------------------------------------------------------------------------------


 E-fermi :  10.2551     XC(G=0): -11.2974     alpha+bet :-13.6069


 k-point   1 :       0.0000    0.0000    0.0000
  band No.  band energies     occupation 
      1     -11.6698      2.00000
      2      -6.2443      2.00000
      3      -5.3453      2.00000
      4      -4.8272      2.00000
      5      -4.0719      2.00000
      6      -3.1622      2.00000
      7      -2.6447      2.00000
      8      -1.7961      2.00000
      9      -1.3922      2.00000
     10      -0.7301      2.00000
     11      -0.0971      2.00000
     12       1.4539      2.00000
     13       1.8578      2.00000
     14       3.5291      2.00000
     15       3.9828      2.00000
     16       5.1055      2.00000
     17       5.8466      2.00000
     18       6.4086      2.00000
     19       7.0670      2.00000
     20       8.6412      2.00000
     21      10.5647     -0.05092
     22      11.2384      0.00000
     23      12.4184      0.00000
     24      14.1006      0.00000
     25      15.1470      0.00000
     26      16.5763      0.00000
     27      17.8267      0.00000
     28      18.2411      0.00000
     29      18.7056      0.00000
     30      19.9927      0.00000
     31      21.2216      0.00000
     32      21.6701      0.00000

 k-point   2 :       0.1250    0.0000    0.0000
  band No.  band energies     occupation 
      1     -11.2471      2.00000
      2      -6.3153      2.00000
      3      -6.0810      2.00000
      4      -4.8908      2.00000
      5      -3.8127      2.00000
      6      -3.2018      2.00000
      7      -2.6599      2.00000
      8      -1.4908      2.00000
      9      -1.2953      2.00000
     10      -0.7575      2.00000
     11      -0.0091      2.00000
     12       1.4461      2.00000
     13       2.1084      2.00000
     14       3.8670      2.00000
     15       4.3853      2.00000
     16       5.1506      2.00000
     17       5.7204      2.00000
     18       6.4520      2.00000
     19       7.4701      2.00000
     20       9.4799      2.00000
     21       9.9417      2.04920
     22      11.7912      0.00000
     23      13.1758      0.00000
     24      14.2495      0.00000
     25      14.9054      0.00000
     26      15.9541      0.00000
     27      17.3879      0.00000
     28      18.4575      0.00000
     29      19.1451      0.00000
     30      19.8017      0.00000
     31      20.8339      0.00000
     32      23.2909      0.00000

 k-point   3 :       0.2500    0.0000    0.0000
  band No.  band energies     occupation 
      1     -11.1980      2.00000
      2      -7.0887      2.00000
      3      -6.0455      2.00000
      4      -5.4862      2.00000
      5      -3.7996      2.00000
      6      -2.5007      2.00000
      7      -2.2791      2.00000
      8      -1.6746      2.00000
      9      -1.1594      2.00000
     10      -0.8236      2.00000
     11       0.8570      2.00000
     12       1.7398      2.00000
     13       2.1325      2.00000
     14       2.9052      2.00000
     15       3.7583      2.00000
     16       4.2452      2.00000
     17       5.6756      2.00000
     18       6.4097      2.00000
     19       7.2779      2.00000
     20       8.2269      2.00000
     21      10.8428     -0.00026
     22      11.4586      0.00000
     23      12.6166      0.00000
     24      13.7738      0.00000
     25      14.7989      0.00000
     26      16.1370      0.00000
     27      17.1046      0.00000
     28      18.0889      0.00000
     29      19.4969      0.00000
     30      20.7546      0.00000
     31      21.7042      0.00000
     32      23.2991      0.00000

 k-point   4 :       0.3750    0.0000    0.0000
  band No.  band energies     occupation 
      1     -10.0858      2.00000
      2      -7.2296      2.00000
      3      -5.9396      2.00000
      4      -5.3704      2.00000
      5      -3.7420      2.00000
      6      -3.0139      2.00000
      7      -1.9058      2.00000
      8      -1.3460      2.00000
      9      -0.8620      2.00000
     10      -0.1653      2.00000
     11       0.9024      2.00000
     12       1.4286      2.00000
     13       2.2605      2.00000
     14       3.2082      2.00000
     15       3.3703      2.00000
     16       4.4212      2.00000
     17       5.0417      2.00000
     18       6.2219      2.00000
     19       7.2368      2.00000
     20       8.1719      2.00000
     21       9.0698      2.00000
     22      10.2659      0.90880
     23      12.4590      0.00000
     24      13.5661      0.00000
     25      14.7340      0.00000
     26      16.4876      0.00000
     27      17.1330      0.00000
     28      17.9063      0.00000
     29      19.3436      0.00000
     30      20.1723      0.00000
     31      21.3326      0.00000
     32      22.6600      0.00000

 k-point   5 :       0.5000    0.0000    0.0000
  band No.  band energies     occupation 
      1     -10.5972      2.00000
      2      -7.2435      2.00000
      3      -6.2110      2.00000
      4      -5.9383      2.00000
      5      -4.1996      2.00000
      6      -2.2294      2.00000
      7      -1.9258      2.00000
      8      -0.9652      2.00000
      9      -0.7096      2.00000
     10      -0.2770      2.00000
     11       0.9666      2.00000
     12       1.2635      2.00000
     13       1.7229      2.00000
     14       2.4253      2.00000
     15       3.9314      2.00000
     16       4.6320      2.00000
     17       5.5359      2.00000
     18       6.8239      2.00000
     19       7.4217      2.00000
     20       9.4385      2.00000
     21       9.9774      2.06438
     22      11.4646      0.00000
     23      12.0777      0.00000
     24      14.1907      0.00000
     25      14.7268      0.00000
     26      15.4476      0.00000
     27      16.5742      0.00000
     28      17.2600      0.00000
     29      18.7152      0.00000
     30      19.9214      0.00000
     31      22.3962      0.00000
     32      24.4027      0.00000

 k-point   6 :       0.1250    0.1250    0.0000
  band No.  band energies     occupation 
      1     -11.2716      2.00000
      2      -6.2090      2.00000
      3      -6.0471      2.00000
      4      -5.3881      2.00000
      5      -3.3710      2.00000
      6      -2.6932      2.00000
      7      -2.2265      2.00000
      8      -1.7713      2.00000
      9      -1.3529      2.00000
     10      -1.1227      2.00000
     11       0.1942      2.00000
     12       2.0204      2.00000
     13       2.4211      2.00000
     14       3.2285      2.00000
     15       4.6319      2.00000
     16       4.9753      2.00000
     17       5.6219      2.00000
     18       6.4632      2.00000
     19       8.4333      2.00000
     20       8.9078      2.00000
     21      10.9526     -0.00001
     22      12.5516      0.00000
     23      13.0306      0.00000
     24      14.6299      0.00000
     25      16.0591      0.00000
     26      16.5338      0.00000
     27      17.0850      0.00000
     28      17.9490      0.00000
     29      19.1526      0.00000
     30      20.2883      0.00000
     31      22.8362      0.00000
     32      23.5743      0.00000

 k-point   7 :       0.2500    0.1250    0.0000
  band No.  band energies     occupation 
      1     -11.0692      2.00000
      2      -6.6493      2.00000
      3      -6.2718      2.00000
      4      -5.5451      2.00000
      5      -3.4931      2.00000
      6      -2.9523      2.00000
      7      -2.4877      2.00000
      8      -1.8713      2.00000
      9      -1.1723      2.00000
     10      -0.5780      2.00000
     11       0.2906      2.00000
     12       1.8117      2.00000
     13       2.4368      2.00000
     14       3.0289      2.00000
     15       3.4991      2.00000
     16       4.7234      2.00000
     17       5.6252      2.00000
     18       6.3087      2.00000
     19       7.7786      2.00000
     20       9.2498      2.00000
     21      10.5706     -0.04821
     22      12.2682      0.00000
     23      13.1756      0.00000
     24      14.0439      0.00000
     25      15.6828      0.00000
     26      16.4203      0.00000
     27      17.0154      0.00000
     28      18.0327      0.00000
     29      19.7439      0.00000
     30      20.4113      0.00000
     31      21.2582      0.00000
     32      22.1528      0.00000

 k-point   8 :       0.3750    0.1250    0.0000
  band No.  band energies     occupation 
      1     -10.5640      2.00000
      2      -6.8319      2.00000
      3      -6.1403      2.00000
      4      -5.6546      2.00000
      5      -3.4327      2.00000
      6      -3.0970      2.00000
      7      -2.2147      2.00000
      8      -1.8296      2.00000
      9      -0.6613      2.00000
     10       0.6910      2.00000
     11       1.1361      2.00000
     12       1.5483      2.00000
     13       2.2899      2.00000
     14       2.8468      2.00000
     15       4.0744      2.00000
     16       4.4500      2.00000
     17       5.3643      2.00000
     18       6.2643      2.00000
     19       6.4966      2.00000
     20       8.1057      2.00000
     21      10.4776     -0.06644
     22      11.0203      0.00000
     23      13.0114      0.00000
     24      14.2851      0.00000
     25      15.2480      0.00000
     26      15.9579      0.00000
     27      16.7230      0.00000
     28      17.2998      0.00000
     29      18.9425      0.00000
     30      21.0567      0.00000
     31      21.6046      0.00000
     32      24.5413      0.00000

 k-point   9 :       0.5000    0.1250    0.0000
  band No.  band energies     occupation 
      1     -10.1024      2.00000
      2      -7.5163      2.00000
      3      -6.0070      2.00000
      4      -5.3191      2.00000
      5      -3.5615      2.00000
      6      -2.5519      2.00000
      7      -1.4254      2.00000
      8      -1.1310      2.00000
      9      -0.1111      2.00000
     10       0.3839      2.00000
     11       1.2562      2.00000
     12       1.9806      2.00000
     13       2.3831      2.00000
     14       3.5950      2.00000
     15       3.7710      2.00000
     16       4.9317      2.00000
     17       6.0340      2.00000
     18       7.0365      2.00000
     19       7.8898      2.00000
     20       9.3607      2.00000
     21      10.0109      2.07091
     22      11.0851      0.00000
     23      12.0040      0.00000
     24      13.5236      0.00000
     25      14.8863      0.00000
     26      15.2174      0.00000
     27      16.0911      0.00000
     28      18.6729      0.00000
     29      18.8546      0.00000
     30      20.3845      0.00000
     31      21.8757      0.00000
     32      22.9739      0.00000

 k-point  10 :      -0.3750    0.1250    0.0000
  band No.  band energies     occupation 
      1     -10.8176      2.00000
      2      -7.4409      2.00000
      3      -6.7808      2.00000
      4      -5.6592      2.00000
      5      -3.5983      2.00000
      6      -2.5943      2.00000
      7      -2.3633      2.00000
      8      -1.9926      2.00000
      9      -0.3492      2.00000
     10      -0.1237      2.00000
     11       0.4501      2.00000
     12       1.1637      2.00000
     13       1.7801      2.00000
     14       2.7478      2.00000
     15       3.3986      2.00000
     16       4.4010      2.00000
     17       4.7505      2.00000
     18       5.2239      2.00000
     19       7.1417      2.00000
     20       8.4539      2.00000
     21       9.5669      2.00001
     22      10.6048     -0.03294
     23      11.6438      0.00000
     24      13.5128      0.00000
     25      14.7620      0.00000
     26      15.3999      0.00000
     27      15.9002      0.00000
     28      17.1668      0.00000
     29      18.0901      0.00000
     30      20.6156      0.00000
     31      21.2988      0.00000
     32      22.6689      0.00000

 k-point  11 :      -0.2500    0.1250    0.0000
  band No.  band energies     occupation 
      1     -11.0600      2.00000
      2      -6.8168      2.00000
      3      -6.1172      2.00000
      4      -5.5632      2.00000
      5      -3.3649      2.00000
      6      -2.5593      2.00000
      7      -2.1203      2.00000
      8      -0.9561      2.00000
      9      -0.5204      2.00000
     10      -0.0124      2.00000
     11       0.5247      2.00000
     12       2.0055      2.00000
     13       2.1141      2.00000
     14       3.2835      2.00000
     15       3.5167      2.00000
     16       4.6444      2.00000
     17       5.1804      2.00000
     18       5.8338      2.00000
     19       6.6638      2.00000
     20       7.9722      2.00000
     21       8.9680      2.00000
     22      10.1104      1.93539
     23      12.2517      0.00000
     24      13.4866      0.00000
     25      14.6622      0.00000
     26      15.8745      0.00000
     27      17.1952      0.00000
     28      19.0170      0.00000
     29      19.8367      0.00000
     30      20.8291      0.00000
     31      21.9837      0.00000
     32      24.3973      0.00000

 k-point  12 :      -0.1250    0.1250    0.0000
  band No.  band energies     occupation 
      1     -11.0618      2.00000
      2      -6.5340      2.00000
      3      -6.0126      2.00000
      4      -5.4599      2.00000
      5      -3.4970      2.00000
      6      -2.9927      2.00000
      7      -2.3515      2.00000
      8      -1.9926      2.00000
      9      -1.3577      2.00000
     10      -1.0681      2.00000
     11       0.4673      2.00000
     12       1.8491      2.00000
     13       2.1842      2.00000
     14       2.6565      2.00000
     15       3.1748      2.00000
     16       4.2294      2.00000
     17       4.6501      2.00000
     18       5.7563      2.00000
     19       7.3337      2.00000
     20       7.6783      2.00000
     21       8.3312      2.00000
     22       9.8071      2.00684
     23      11.6818      0.00000
     24      13.2019      0.00000
     25      14.0603      0.00000
     26      15.1800      0.00000
     27      15.8383      0.00000
     28      17.0499      0.00000
     29      17.6661      0.00000
     30      18.6736      0.00000
     31      20.5224      0.00000
     32      21.6903      0.00000

 k-point  13 :       0.2500    0.2500    0.0000
  band No.  band energies     occupation 
      1     -10.6804      2.00000
      2      -6.5479      2.00000
      3      -6.1536      2.00000
      4      -5.3065      2.00000
      5      -3.7817      2.00000
      6      -2.7168      2.00000
      7      -1.7362      2.00000
      8      -1.5239      2.00000
      9      -0.5743      2.00000
     10       0.1858      2.00000
     11       0.5462      2.00000
     12       1.9742      2.00000
     13       2.3488      2.00000
     14       2.6072      2.00000
     15       4.0493      2.00000
     16       4.9842      2.00000
     17       5.9740      2.00000
     18       6.5383      2.00000
     19       8.3756      2.00000
     20       9.2429      2.00000
     21      10.0210      2.06994
     22      11.4275      0.00000
     23      12.4027      0.00000
     24      13.3148      0.00000
     25      14.4884      0.00000
     26      15.4016      0.00000
     27      17.0295      0.00000
     28      17.7539      0.00000
     29      19.1509      0.00000
     30      19.7326      0.00000
     31      20.6317      0.00000
     32      22.1399      0.00000

 k-point  14 :       0.3750    0.2500    0.0000
  band No.  band energies     occupation 
      1     -10.5348      2.00000
      2      -7.2360      2.00000
      3      -6.1594      2.00000
      4      -5.2807      2.00000
      5      -3.7522      2.00000
      6      -3.1361      2.00000
      7      -2.1423      2.00000
      8      -1.5441      2.00000
      9      -0.6994      2.00000
     10       0.8824      2.00000
     11       1.5689      2.00000
     12       2.0947      2.00000
     13       2.3091      2.00000
     14       3.0195      2.00000
     15       3.3460      2.00000
     16       4.0770      2.00000
     17       5.1583      2.00000
     18       5.6171      2.00000
     19       6.6854      2.00000
     20       7.3811      2.00000
     21       9.5776      2.00002
     22      10.0448      2.05937
     23      11.9165      0.00000
     24      13.3549      0.00000
     25      13.9834      0.00000
     26      14.7455      0.00000
     27      16.3056      0.00000
     28      18.4840      0.00000
     29      18.9310      0.00000
     30      20.5087      0.00000
     31      21.8894      0.00000
     32      24.9041      0.00000

 k-point  15 :       0.5000    0.2500    0.0000
  band No.  band energies     occupation 
      1     -10.8191      2.00000
      2      -7.3815      2.00000
      3      -6.3976      2.00000
      4      -5.8356      2.00000
      5      -3.4692      2.00000
      6      -2.9517      2.00000
      7      -1.8256      2.00000
      8      -0.6208      2.00000
      9      -0.4003      2.00000
     10      -0.1709      2.00000
     11       1.1200      2.00000
     12       1.3891      2.00000
     13       2.5049      2.00000
     14       3.3018      2.00000
     15       3.9095      2.00000
     16       4.6499      2.00000
     17       5.1674      2.00000
     18       5.8922      2.00000
     19       6.7882      2.00000
     20       8.1748      2.00000
     21       9.5152      2.00000
     22      10.0526      2.05276
     23      10.6220     -0.02625
     24      12.8007      0.00000
     25      13.4858      0.00000
     26      15.2558      0.00000
     27      16.3746      0.00000
     28      17.5476      0.00000
     29      19.0190      0.00000
     30      19.8738      0.00000
     31      21.4614      0.00000
     32      22.6036      0.00000

 k-point  16 :      -0.3750    0.2500    0.0000
  band No.  band energies     occupation 
      1     -10.3330      2.00000
      2      -6.8010      2.00000
      3      -5.8659      2.00000
      4      -5.5788      2.00000
      5      -2.8453      2.00000
      6      -2.5004      2.00000
      7      -1.9957      2.00000
      8      -1.3076      2.00000
      9      -0.8571      2.00000
     10       0.1983      2.00000
     11       1.4330      2.00000
     12       2.1679      2.00000
     13       2.4086      2.00000
     14       3.3011      2.00000
     15       3.8658      2.00000
     16       4.3416      2.00000
     17       5.4583      2.00000
     18       5.8840      2.00000
     19       6.7245      2.00000
     20       9.0835      2.00000
     21       9.5865      2.00002
     22      11.0223      0.00000
     23      11.6457      0.00000
     24      12.8407      0.00000
     25      14.0145      0.00000
     26      15.3721      0.00000
     27      16.6355      0.00000
     28      16.9232      0.00000
     29      17.7462      0.00000
     30      18.6869      0.00000
     31      20.9512      0.00000
     32      22.3461      0.00000

 k-point  17 :      -0.2500    0.2500    0.0000
  band No.  band energies     occupation 
      1     -10.3171      2.00000
      2      -6.9289      2.00000
      3      -6.5403      2.00000
      4      -5.6903      2.00000
      5      -2.9082      2.00000
      6      -2.6827      2.00000
      7      -2.1077      2.00000
      8      -1.7473      2.00000
      9      -1.1629      2.00000
     10      -0.2987      2.00000
     11       0.7908      2.00000
     12       2.1227      2.00000
     13       2.4792      2.00000
     14       2.8290      2.00000
     15       3.0674      2.00000
     16       3.8223      2.00000
     17       5.2758      2.00000
     18       6.7688      2.00000
     19       7.3051      2.00000
     20       8.1635      2.00000
     21       9.6739      2.00031
     22      10.6570     -0.01549
     23      12.3158      0.00000
     24      12.8302      0.00000
     25      14.1105      0.00000
     26      15.1411      0.00000
     27      15.7369      0.00000
     28      16.7341      0.00000
     29      17.8747      0.00000
     30      20.5689      0.00000
     31      21.5157      0.00000
     32      23.1349      0.00000

 k-point  18 :       0.3750    0.3750    0.0000
  band No.  band energies     occupation 
      1     -10.4554      2.00000
      2      -7.5284      2.00000
      3      -6.4538      2.00000
      4      -5.2410      2.00000
      5      -3.9112      2.00000
      6      -2.9729      2.00000
      7      -1.5657      2.00000
      8      -0.2892      2.00000
      9      -0.0571      2.00000
     10       0.3043      2.00000
     11       0.8778      2.00000
     12       2.4505      2.00000
     13       2.9080      2.00000
     14       3.1631      2.00000
     15       3.7467      2.00000
     16       4.9725      2.00000
     17       5.4747      2.00000
     18       6.5062      2.00000
     19       7.6421      2.00000
     20       8.2428      2.00000
     21       9.1589      2.00000
     22      11.7689      0.00000
     23      13.0488      0.00000
     24      13.8364      0.00000
     25      14.8000      0.00000
     26      15.9060      0.00000
     27      16.7943      0.00000
     28      18.1452      0.00000
     29      19.7033      0.00000
     30      20.8582      0.00000
     31      21.9315      0.00000
     32      22.8475      0.00000

 k-point  19 :       0.5000    0.3750    0.0000
  band No.  band energies     occupation 
      1     -10.8722      2.00000
      2      -7.1971      2.00000
      3      -6.3065      2.00000
      4      -5.9550      2.00000
      5      -3.5432      2.00000
      6      -2.4041      2.00000
      7      -1.7116      2.00000
      8      -0.5917      2.00000
      9       0.0567      2.00000
     10       0.6435      2.00000
     11       0.8287      2.00000
     12       1.8215      2.00000
     13       2.5352      2.00000
     14       3.0859      2.00000
     15       3.8988      2.00000
     16       4.8720      2.00000
     17       6.0868      2.00000
     18       6.3292      2.00000
     19       7.7677      2.00000
     20       8.1460      2.00000
     21      10.0110      2.07091
     22      11.3844      0.00000
     23      12.8611      0.00000
     24      14.3917      0.00000
     25      15.6449      0.00000
     26      16.4205      0.00000
     27      16.9842      0.00000
     28      18.1261      0.00000
     29      19.2669      0.00000
     30      19.8781      0.00000
     31      22.0621      0.00000
     32      26.1073      0.00000

 k-point  20 :      -0.3750    0.3750    0.0000
  band No.  band energies     occupation 
      1     -10.5454      2.00000
      2      -7.0753      2.00000
      3      -6.7947      2.00000
      4      -6.1849      2.00000
      5      -3.5783      2.00000
      6      -2.9422      2.00000
      7      -2.3377      2.00000
      8      -1.2342      2.00000
      9      -0.6394      2.00000
     10       0.6097      2.00000
     11       1.0784      2.00000
     12       1.7766      2.00000
     13       2.6496      2.00000
     14       3.4713      2.00000
     15       3.8347      2.00000
     16       4.5317      2.00000
     17       5.3809      2.00000
     18       6.1602      2.00000
     19       6.6031      2.00000
     20       8.5058      2.00000
     21       9.3988      2.00000
     22      10.5883     -0.04010
     23      12.4501      0.00000
     24      13.9124      0.00000
     25      14.8069      0.00000
     26      15.9531      0.00000
     27      17.7112      0.00000
     28      18.6620      0.00000
     29      19.7843      0.00000
     30      20.6080      0.00000
     31      21.4430      0.00000
     32      24.5225      0.00000

 k-point  21 :       0.5000    0.5000    0.0000
  band No.  band energies     occupation 
      1     -10.3468      2.00000
      2      -7.3620      2.00000
      3      -6.2721      2.00000
      4      -5.6934      2.00000
      5      -4.1607      2.00000
      6      -2.6938      2.00000
      7      -1.0935      2.00000
      8      -0.3711      2.00000
      9      -0.0556      2.00000
     10       0.7544      2.00000
     11       1.3677      2.00000
     12       1.9871      2.00000
     13       2.9816      2.00000
     14       3.3515      2.00000
     15       4.1468      2.00000
     16       5.0470      2.00000
     17       5.7876      2.00000
     18       6.7122      2.00000
     19       7.5741      2.00000
     20       7.7046      2.00000
     21       9.6798      2.00037
     22      11.2485      0.00000
     23      12.5088      0.00000
     24      13.9719      0.00000
     25      15.7485      0.00000
     26      15.8917      0.00000
     27      16.9676      0.00000
     28      18.1490      0.00000
     29      20.2257      0.00000
     30      20.9721      0.00000
     31      22.0028      0.00000
     32      23.2843      0.00000

 k-point  22 :       0.1250    0.1250    0.1250
  band No.  band energies     occupation 
      1     -11.6461      2.00000
      2      -6.2383      2.00000
      3      -5.9328      2.00000
      4      -5.4150      2.00000
      5      -4.1991      2.00000
      6      -2.8994      2.00000
      7      -2.6849      2.00000
      8      -1.8768      2.00000
      9      -1.2233      2.00000
     10      -1.0343      2.00000
     11      -0.6095      2.00000
     12       2.0341      2.00000
     13       2.4210      2.00000
     14       2.8929      2.00000
     15       4.1704      2.00000
     16       5.1345      2.00000
     17       5.6414      2.00000
     18       6.7619      2.00000
     19       8.0750      2.00000
     20       9.0365      2.00000
     21      10.5105     -0.07013
     22      11.0741      0.00000
     23      12.5166      0.00000
     24      14.2809      0.00000
     25      14.5148      0.00000
     26      16.2900      0.00000
     27      17.1817      0.00000
     28      17.8350      0.00000
     29      18.4116      0.00000
     30      20.1247      0.00000
     31      21.2411      0.00000
     32      24.9671      0.00000

 k-point  23 :       0.2500    0.1250    0.1250
  band No.  band energies     occupation 
      1     -11.2121      2.00000
      2      -6.8438      2.00000
      3      -6.0413      2.00000
      4      -5.0988      2.00000
      5      -3.5519      2.00000
      6      -2.9413      2.00000
      7      -2.6044      2.00000
      8      -1.7815      2.00000
      9      -0.7147      2.00000
     10      -0.3252      2.00000
     11       0.6505      2.00000
     12       1.6748      2.00000
     13       3.5583      2.00000
     14       3.8658      2.00000
     15       4.7753      2.00000
     16       5.9869      2.00000
     17       6.7890      2.00000
     18       7.5320      2.00000
     19       8.0766      2.00000
     20       9.8520      2.01522
     21      11.7386      0.00000
     22      12.1754      0.00000
     23      13.7531      0.00000
     24      14.4649      0.00000
     25      15.0127      0.00000
     26      16.3397      0.00000
     27      16.8672      0.00000
     28      17.8901      0.00000
     29      18.2699      0.00000
     30      20.6283      0.00000
     31      21.4325      0.00000
     32      24.2590      0.00000

 k-point  24 :       0.3750    0.1250    0.1250
  band No.  band energies     occupation 
      1     -10.8570      2.00000
      2      -6.8046      2.00000
      3      -5.7448      2.00000
      4      -5.2257      2.00000
      5      -3.2837      2.00000
      6      -2.9131      2.00000
      7      -2.3853      2.00000
      8      -2.0115      2.00000
      9      -1.4644      2.00000
     10       0.3932      2.00000
     11       0.9199      2.00000
     12       1.7481      2.00000
     13       2.6877      2.00000
     14       3.3116      2.00000
     15       4.4094      2.00000
     16       4.8563      2.00000
     17       5.5538      2.00000
     18       6.2767      2.00000
     19       8.3145      2.00000
     20       9.0940      2.00000
     21       9.8675      2.01945
     22      10.6565     -0.01561
     23      12.8458      0.00000
     24      14.4966      0.00000
     25      15.3360      0.00000
     26      16.7547      0.00000
     27      18.1110      0.00000
     28      18.9458      0.00000
     29      19.6612      0.00000
     30      21.8499      0.00000
     31      22.9234      0.00000
     32      25.9052      0.00000

 k-point  25 :       0.5000    0.1250    0.1250
  band No.  band energies     occupation 
      1     -10.7056      2.00000
      2      -7.2793      2.00000
      3      -5.8608      2.00000
      4      -5.2825      2.00000
      5      -3.4261      2.00000
      6      -2.5622      2.00000
      7      -2.0186      2.00000
      8      -1.6947      2.00000
      9      -1.1426      2.00000
     10       0.4387      2.00000
     11       0.9667      2.00000
     12       1.1692      2.00000
     13       1.6852      2.00000
     14       2.5733      2.00000
     15       3.4048      2.00000
     16       4.8930      2.00000
     17       5.9886      2.00000
     18       6.2556      2.00000
     19       7.1834      2.00000
     20       8.2562      2.00000
     21       9.2110      2.00000
     22      10.1291      1.86583
     23      11.2611      0.00000
     24      12.3752      0.00000
     25      13.6607      0.00000
     26      14.7937      0.00000
     27      16.2856      0.00000
     28      18.0803      0.00000
     29      18.5469      0.00000
     30      19.5257      0.00000
     31      20.9679      0.00000
     32      22.9348      0.00000

 k-point  26 :      -0.3750    0.1250    0.1250
  band No.  band energies     occupation 
      1     -10.8255      2.00000
      2      -7.2165      2.00000
      3      -5.9587      2.00000
      4      -5.6438      2.00000
      5      -3.6829      2.00000
      6      -2.5723      2.00000
      7      -2.2084      2.00000
      8      -1.2265      2.00000
      9      -0.7717      2.00000
     10       0.2324      2.00000
     11       0.7203      2.00000
     12       1.6646      2.00000
     13       2.2208      2.00000
     14       2.6906      2.00000
     15       3.3873      2.00000
     16       3.7564      2.00000
     17       5.0126      2.00000
     18       5.8323      2.00000
     19       7.5860      2.00000
     20       7.9459      2.00000
     21       8.2130      2.00000
     22       9.6451      2.00014
     23      11.2961      0.00000
     24      13.2324      0.00000
     25      14.5106      0.00000
     26      15.3725      0.00000
     27      17.5663      0.00000
     28      17.9441      0.00000
     29      19.0375      0.00000
     30      20.8723      0.00000
     31      23.9418      0.00000
     32      25.1234      0.00000

 k-point  27 :      -0.2500    0.1250    0.1250
  band No.  band energies     occupation 
      1     -10.5522      2.00000
      2      -7.4178      2.00000
      3      -6.3085      2.00000
      4      -6.0207      2.00000
      5      -3.7208      2.00000
      6      -1.8733      2.00000
      7      -1.4321      2.00000
      8      -1.1854      2.00000
      9      -0.6578      2.00000
     10       0.1433      2.00000
     11       1.2679      2.00000
     12       2.0529      2.00000
     13       3.1102      2.00000
     14       3.4241      2.00000
     15       4.4236      2.00000
     16       4.7928      2.00000
     17       5.7841      2.00000
     18       6.7347      2.00000
     19       7.1274      2.00000
     20       8.0161      2.00000
     21       9.5886      2.00003
     22      11.7350      0.00000
     23      14.0425      0.00000
     24      14.8962      0.00000
     25      15.5031      0.00000
     26      16.6805      0.00000
     27      17.5157      0.00000
     28      18.3123      0.00000
     29      19.8568      0.00000
     30      20.4509      0.00000
     31      21.5371      0.00000
     32      22.4137      0.00000

 k-point  28 :      -0.1250    0.1250    0.1250
  band No.  band energies     occupation 
      1     -10.9385      2.00000
      2      -6.6620      2.00000
      3      -5.8739      2.00000
      4      -5.4904      2.00000
      5      -3.4300      2.00000
      6      -2.5403      2.00000
      7      -2.0360      2.00000
      8      -1.8729      2.00000
      9      -1.4762      2.00000
     10      -0.5174      2.00000
     11       0.2694      2.00000
     12       0.9177      2.00000
     13       1.5653      2.00000
     14       2.4274      2.00000
     15       3.0357      2.00000
     16       3.8552      2.00000
     17       5.5504      2.00000
     18       6.7410      2.00000
     19       7.6381      2.00000
     20       8.6062      2.00000
     21       9.5461      2.00001
     22      10.6793     -0.01061
     23      12.1090      0.00000
     24      13.8416      0.00000
     25      15.1386      0.00000
     26      15.9221      0.00000
     27      16.4769      0.00000
     28      17.9535      0.00000
     29      19.4810      0.00000
     30      20.2203      0.00000
     31      20.5378      0.00000
     32      23.7155      0.00000

 k-point  29 :       0.2500    0.2500    0.1250
  band No.  band energies     occupation 
      1     -11.2282      2.00000
      2      -6.6664      2.00000
      3      -6.0816      2.00000
      4      -5.6502      2.00000
      5      -3.4816      2.00000
      6      -3.0199      2.00000
      7      -2.5393      2.00000
      8      -1.7400      2.00000
      9      -1.4153      2.00000
     10      -0.5123      2.00000
     11       0.1556      2.00000
     12       2.1794      2.00000
     13       2.5777      2.00000
     14       3.0437      2.00000
     15       3.5837      2.00000
     16       4.6879      2.00000
     17       4.9910      2.00000
     18       5.7476      2.00000
     19       6.8180      2.00000
     20       8.4650      2.00000
     21       9.1910      2.00000
     22      10.6084     -0.03149
     23      11.4420      0.00000
     24      14.0425      0.00000
     25      15.2266      0.00000
     26      16.6151      0.00000
     27      17.7313      0.00000
     28      18.8576      0.00000
     29      19.5715      0.00000
     30      20.2942      0.00000
     31      20.9295      0.00000
     32      22.7914      0.00000

 k-point  30 :       0.3750    0.2500    0.1250
  band No.  band energies     occupation 
      1     -10.7912      2.00000
      2      -7.0024      2.00000
      3      -6.3721      2.00000
      4      -6.0471      2.00000
      5      -3.3840      2.00000
      6      -2.4400      2.00000
      7      -1.8360      2.00000
      8      -1.6760      2.00000
      9      -0.8344      2.00000
     10      -0.7000      2.00000
     11       0.8129      2.00000
     12       2.0605      2.00000
     13       2.3496      2.00000
     14       3.2673      2.00000
     15       4.3635      2.00000
     16       5.2976      2.00000
     17       5.5912      2.00000
     18       6.2647      2.00000
     19       7.2191      2.00000
     20       9.1971      2.00000
     21       9.9430      2.04978
     22      11.5540      0.00000
     23      13.0868      0.00000
     24      14.0326      0.00000
     25      14.3426      0.00000
     26      15.2231      0.00000
     27      16.0210      0.00000
     28      17.3867      0.00000
     29      18.1026      0.00000
     30      19.2665      0.00000
     31      20.9951      0.00000
     32      23.6356      0.00000

 k-point  31 :       0.5000    0.2500    0.1250
  band No.  band energies     occupation 
      1      -9.8559      2.00000
      2      -7.5136      2.00000
      3      -6.1030      2.00000
      4      -5.6656      2.00000
      5      -3.3921      2.00000
      6      -2.7352      2.00000
      7      -2.1131      2.00000
      8      -1.6115      2.00000
      9      -1.1513      2.00000
     10       0.2919      2.00000
     11       1.0900      2.00000
     12       1.2947      2.00000
     13       2.4999      2.00000
     14       3.6860      2.00000
     15       4.0307      2.00000
     16       4.5570      2.00000
     17       5.1057      2.00000
     18       6.3382      2.00000
     19       7.1415      2.00000
     20       8.0938      2.00000
     21       9.2392      2.00000
     22      10.9628     -0.00001
     23      11.5760      0.00000
     24      13.9387      0.00000
     25      14.5957      0.00000
     26      16.0462      0.00000
     27      16.8786      0.00000
     28      17.9889      0.00000
     29      19.3627      0.00000
     30      20.3869      0.00000
     31      22.9209      0.00000
     32      25.0290      0.00000

 k-point  32 :      -0.3750    0.2500    0.1250
  band No.  band energies     occupation 
      1     -10.4370      2.00000
      2      -7.6611      2.00000
      3      -6.5467      2.00000
      4      -6.0498      2.00000
      5      -3.2587      2.00000
      6      -2.1593      2.00000
      7      -1.5078      2.00000
      8      -0.9705      2.00000
      9      -0.2299      2.00000
     10       0.0870      2.00000
     11       0.5632      2.00000
     12       1.7470      2.00000
     13       2.8230      2.00000
     14       3.2101      2.00000
     15       4.3109      2.00000
     16       4.9473      2.00000
     17       5.3571      2.00000
     18       6.1676      2.00000
     19       7.0049      2.00000
     20       8.3928      2.00000
     21       9.3092      2.00000
     22      10.4211      0.00531
     23      12.5580      0.00000
     24      14.0281      0.00000
     25      15.4372      0.00000
     26      16.3627      0.00000
     27      17.0137      0.00000
     28      18.4435      0.00000
     29      19.1931      0.00000
     30      20.2716      0.00000
     31      22.0264      0.00000
     32      22.8005      0.00000

 k-point  33 :      -0.2500    0.2500    0.1250
  band No.  band energies     occupation 
      1      -9.7403      2.00000
      2      -7.5342      2.00000
      3      -6.2249      2.00000
      4      -5.3206      2.00000
      5      -3.0011      2.00000
      6      -2.5210      2.00000
      7      -1.3290      2.00000
      8      -0.8612      2.00000
      9      -0.3205      2.00000
     10       0.3552      2.00000
     11       1.0132      2.00000
     12       1.7176      2.00000
     13       2.2568      2.00000
     14       3.1139      2.00000
     15       3.5702      2.00000
     16       4.4308      2.00000
     17       5.1498      2.00000
     18       5.5483      2.00000
     19       6.7661      2.00000
     20       7.9306      2.00000
     21       9.1072      2.00000
     22      11.8588      0.00000
     23      13.0650      0.00000
     24      13.9848      0.00000
     25      14.7332      0.00000
     26      16.7559      0.00000
     27      17.0672      0.00000
     28      17.7717      0.00000
     29      19.3747      0.00000
     30      20.2463      0.00000
     31      21.0141      0.00000
     32      22.5899      0.00000

 k-point  34 :      -0.1250    0.2500    0.1250
  band No.  band energies     occupation 
      1     -10.5381      2.00000
      2      -6.9787      2.00000
      3      -6.1960      2.00000
      4      -5.5822      2.00000
      5      -3.1798      2.00000
      6      -2.5451      2.00000
      7      -1.9569      2.00000
      8      -1.3059      2.00000
      9      -0.8870      2.00000
     10      -0.2196      2.00000
     11       0.8399      2.00000
     12       1.3109      2.00000
     13       2.2541      2.00000
     14       2.5516      2.00000
     15       3.1205      2.00000
     16       3.8056      2.00000
     17       4.9876      2.00000
     18       6.2528      2.00000
     19       7.0657      2.00000
     20       8.9362      2.00000
     21      10.3400      0.34800
     22      11.6416      0.00000
     23      12.6191      0.00000
     24      13.6249      0.00000
     25      14.5178      0.00000
     26      14.9544      0.00000
     27      16.9866      0.00000
     28      17.9691      0.00000
     29      18.5683      0.00000
     30      19.2426      0.00000
     31      20.9793      0.00000
     32      21.7013      0.00000

 k-point  35 :       0.3750    0.3750    0.1250
  band No.  band energies     occupation 
      1     -10.1252      2.00000
      2      -7.4122      2.00000
      3      -6.5652      2.00000
      4      -5.5442      2.00000
      5      -3.8383      2.00000
      6      -3.1406      2.00000
      7      -2.3170      2.00000
      8      -1.2783      2.00000
      9       0.0062      2.00000
     10       0.4168      2.00000
     11       1.5181      2.00000
     12       2.2462      2.00000
     13       2.7803      2.00000
     14       3.1740      2.00000
     15       3.6302      2.00000
     16       4.9312      2.00000
     17       5.1546      2.00000
     18       6.4490      2.00000
     19       7.4874      2.00000
     20       8.7586      2.00000
     21       9.2791      2.00000
     22      10.9808      0.00000
     23      12.9783      0.00000
     24      13.6218      0.00000
     25      15.4284      0.00000
     26      16.7668      0.00000
     27      17.9990      0.00000
     28      18.4414      0.00000
     29      19.3421      0.00000
     30      20.5523      0.00000
     31      22.4668      0.00000
     32      24.0169      0.00000

 k-point  36 :       0.5000    0.3750    0.1250
  band No.  band energies     occupation 
      1      -9.9211      2.00000
      2      -7.5208      2.00000
      3      -6.8578      2.00000
      4      -5.8313      2.00000
      5      -3.7361      2.00000
      6      -2.8342      2.00000
      7      -2.5716      2.00000
      8      -0.8579      2.00000
      9      -0.5527      2.00000
     10       0.5908      2.00000
     11       1.7658      2.00000
     12       2.2560      2.00000
     13       2.8947      2.00000
     14       3.7790      2.00000
     15       4.2733      2.00000
     16       5.0730      2.00000
     17       5.9402      2.00000
     18       6.6917      2.00000
     19       7.5770      2.00000
     20       8.5487      2.00000
     21       9.0586      2.00000
     22      11.2009      0.00000
     23      12.1402      0.00000
     24      13.0007      0.00000
     25      14.6130      0.00000
     26      15.4653      0.00000
     27      16.2737      0.00000
     28      17.7950      0.00000
     29      18.1797      0.00000
     30      19.3562      0.00000
     31      19.8883      0.00000
     32      22.8658      0.00000

 k-point  37 :      -0.3750    0.3750    0.1250
  band No.  band energies     occupation 
      1     -10.4201      2.00000
      2      -7.1507      2.00000
      3      -6.6177      2.00000
      4      -5.7907      2.00000
      5      -3.4421      2.00000
      6      -2.7639      2.00000
      7      -2.3595      2.00000
      8      -1.3003      2.00000
      9      -0.3509      2.00000
     10       0.3834      2.00000
     11       0.8312      2.00000
     12       1.5284      2.00000
     13       2.7661      2.00000
     14       3.2304      2.00000
     15       4.2312      2.00000
     16       4.6842      2.00000
     17       5.2701      2.00000
     18       6.5208      2.00000
     19       7.6778      2.00000
     20       8.5096      2.00000
     21      10.1084      1.94183
     22      11.3303      0.00000
     23      11.9680      0.00000
     24      14.5097      0.00000
     25      15.2191      0.00000
     26      15.4482      0.00000
     27      16.0269      0.00000
     28      17.1649      0.00000
     29      17.9262      0.00000
     30      18.8208      0.00000
[...]
     16       1.9146      2.00000
     17       2.0037      2.00000
     18       2.2621      2.00000
     19       2.5212      2.00000
     20       2.6906      2.00000
     21       2.8425      2.00001
     22       3.6723      0.08726
     23       5.8173      0.00000
     24       7.3757      0.00000
     25       7.7715      0.00000
     26       8.4381      0.00000
     27       8.9762      0.00000
     28       9.8899      0.00000
     29      10.8443      0.00000
     30      12.3507      0.00000
     31      12.4281      0.00000
     32      12.7447      0.00000

 k-point  58 :      -0.2500    0.5000    0.2500
  band No.  band energies     occupation 
      1     -10.3382      2.00000
      2      -7.3233      2.00000
      3      -7.2768      2.00000
      4      -6.7485      2.00000
      5      -4.0909      2.00000
      6      -3.5823      2.00000
      7      -2.9391      2.00000
      8      -2.4731      2.00000
      9      -1.5210      2.00000
     10      -1.1864      2.00000
     11      -0.4008      2.00000
     12      -0.2591      2.00000
     13       0.6212      2.00000
     14       1.3076      2.00000
     15       1.3947      2.00000
     16       1.6166      2.00000
     17       1.7254      2.00000
     18       2.2166      2.00000
     19       2.3114      2.00000
     20       2.3966      2.00000
     21       2.8254      2.00001
     22       3.4337      1.74357
     23       5.8998      0.00000
     24       7.3851      0.00000
     25       7.9769      0.00000
     26       8.5713      0.00000
     27       9.5088      0.00000
     28       9.6935      0.00000
     29      11.2471      0.00000
     30      12.2364      0.00000
     31      12.7203      0.00000
     32      12.7311      0.00000

 k-point  59 :      -0.3750   -0.3750    0.2500
  band No.  band energies     occupation 
      1     -10.3363      2.00000
      2      -7.4652      2.00000
      3      -6.9857      2.00000
      4      -6.7400      2.00000
      5      -4.8157      2.00000
      6      -3.0168      2.00000
      7      -2.7614      2.00000
      8      -2.3864      2.00000
      9      -1.8511      2.00000
     10      -1.3872      2.00000
     11      -0.5362      2.00000
     12      -0.0799      2.00000
     13       0.4749      2.00000
     14       1.2583      2.00000
     15       1.3465      2.00000
     16       1.6670      2.00000
     17       1.9763      2.00000
     18       2.3060      2.00000
     19       2.5007      2.00000
     20       2.6748      2.00000
     21       2.8916      2.00005
     22       3.5021      1.26895
     23       5.7185      0.00000
     24       7.6798      0.00000
     25       7.8747      0.00000
     26       8.6354      0.00000
     27       8.8742      0.00000
     28       9.7614      0.00000
     29      10.8048      0.00000
     30      12.3119      0.00000
     31      12.4060      0.00000
     32      12.6083      0.00000

 k-point  60 :       0.3750    0.3750    0.3750
  band No.  band energies     occupation 
      1     -10.4871      2.00000
      2      -7.2310      2.00000
      3      -6.4506      2.00000
      4      -6.4506      2.00000
      5      -4.8829      2.00000
      6      -3.5812      2.00000
      7      -3.5812      2.00000
      8      -2.9819      2.00000
      9      -1.9425      2.00000
     10      -1.9425      2.00000
     11      -1.2547      2.00000
     12       0.9475      2.00000
     13       1.1199      2.00000
     14       1.1199      2.00000
     15       1.9034      2.00000
     16       1.9034      2.00000
     17       2.2032      2.00000
     18       2.4953      2.00000
     19       2.5292      2.00000
     20       2.5292      2.00000
     21       4.0737     -0.00092
     22       4.0737     -0.00092
     23       5.8276      0.00000
     24       6.9500      0.00000
     25       8.3544      0.00000
     26       8.6365      0.00000
     27       8.6365      0.00000
     28       9.8428      0.00000
     29      10.6012      0.00000
     30      11.9945      0.00000
     31      11.9945      0.00000
     32      12.6054      0.00000

 k-point  61 :       0.5000    0.3750    0.3750
  band No.  band energies     occupation 
      1     -10.4203      2.00000
      2      -7.3077      2.00000
      3      -6.7481      2.00000
      4      -6.4709      2.00000
      5      -4.6300      2.00000
      6      -3.9274      2.00000
      7      -3.4985      2.00000
      8      -2.4398      2.00000
      9      -1.9991      2.00000
     10      -1.8273      2.00000
     11      -0.9265      2.00000
     12       0.5578      2.00000
     13       0.9241      2.00000
     14       1.1243      2.00000
     15       1.8959      2.00000
     16       1.9715      2.00000
     17       2.2351      2.00000
     18       2.3229      2.00000
     19       2.5807      2.00000
     20       2.6938      2.00000
     21       3.8772     -0.03583
     22       4.0123     -0.00373
     23       6.1968      0.00000
     24       6.6892      0.00000
     25       8.1004      0.00000
     26       8.4921      0.00000
     27       8.6017      0.00000
     28       9.7557      0.00000
     29      10.4470      0.00000
     30      11.9082      0.00000
     31      12.1200      0.00000
     32      12.6535      0.00000

 k-point  62 :      -0.3750    0.3750    0.3750
  band No.  band energies     occupation 
      1     -10.3569      2.00000
      2      -7.2293      2.00000
      3      -7.1705      2.00000
      4      -6.6002      2.00000
      5      -4.5691      2.00000
      6      -3.7230      2.00000
      7      -3.0530      2.00000
      8      -2.1667      2.00000
      9      -1.9613      2.00000
     10      -1.5278      2.00000
     11      -1.2152      2.00000
     12       0.5169      2.00000
     13       1.0704      2.00000
     14       1.0854      2.00000
     15       1.4248      2.00000
     16       1.9215      2.00000
     17       2.0451      2.00000
     18       2.3205      2.00000
     19       2.6283      2.00000
     20       2.6612      2.00000
     21       3.2920      2.07086
     22       3.8505     -0.04790
     23       5.9669      0.00000
     24       7.0162      0.00000
     25       8.0109      0.00000
     26       8.5357      0.00000
     27       8.5841      0.00000
     28       9.6974      0.00000
     29      10.5978      0.00000
     30      12.0604      0.00000
     31      12.4133      0.00000
     32      12.5904      0.00000

 k-point  63 :       0.5000    0.5000    0.3750
  band No.  band energies     occupation 
      1     -10.3895      2.00000
      2      -7.3745      2.00000
      3      -6.6949      2.00000
      4      -6.5551      2.00000
      5      -4.6711      2.00000
      6      -3.9767      2.00000
      7      -3.4551      2.00000
      8      -2.4877      2.00000
      9      -2.0107      2.00000
     10      -1.5343      2.00000
     11      -0.7548      2.00000
     12       0.4660      2.00000
     13       0.6363      2.00000
     14       1.0008      2.00000
     15       1.9308      2.00000
     16       1.9814      2.00000
     17       2.3611      2.00000
     18       2.5396      2.00000
     19       2.6371      2.00000
     20       2.6660      2.00000
     21       3.7866     -0.07052
     22       4.0456     -0.00179
     23       6.3143      0.00000
     24       6.6898      0.00000
     25       7.9906      0.00000
     26       8.4241      0.00000
     27       8.4804      0.00000
     28       9.6382      0.00000
     29      10.3264      0.00000
     30      11.8889      0.00000
     31      12.0521      0.00000
     32      12.6440      0.00000

 k-point  64 :      -0.3750    0.5000    0.3750
  band No.  band energies     occupation 
      1     -10.3543      2.00000
      2      -7.3018      2.00000
      3      -7.0085      2.00000
      4      -6.6540      2.00000
      5      -4.3072      2.00000
      6      -4.2112      2.00000
      7      -3.0689      2.00000
      8      -2.1662      2.00000
      9      -1.8122      2.00000
     10      -1.7906      2.00000
     11      -0.9215      2.00000
     12       0.5653      2.00000
     13       0.6905      2.00000
     14       1.0875      2.00000
     15       1.6948      2.00000
     16       1.9852      2.00000
     17       2.1997      2.00000
     18       2.4114      2.00000
     19       2.5151      2.00000
     20       2.6209      2.00000
     21       3.4371      1.72445
     22       3.9385     -0.01494
     23       6.0899      0.00000
     24       6.9230      0.00000
     25       7.9341      0.00000
     26       8.3452      0.00000
     27       8.6324      0.00000
     28       9.6951      0.00000
     29      10.4944      0.00000
     30      12.1133      0.00000
     31      12.1465      0.00000
     32      12.6917      0.00000

 k-point  65 :       0.5000    0.5000    0.5000
  band No.  band energies     occupation 
      1     -10.3955      2.00000
      2      -7.4407      2.00000
      3      -6.4835      2.00000
      4      -6.4835      2.00000
      5      -4.9480      2.00000
      6      -3.6622      2.00000
      7      -3.6622      2.00000
      8      -3.0582      2.00000
      9      -1.5782      2.00000
     10      -1.5782      2.00000
     11      -0.6183      2.00000
     12       0.3720      2.00000
     13       0.6214      2.00000
     14       0.6214      2.00000
     15       2.0378      2.00000
     16       2.0378      2.00000
     17       2.5747      2.00000
     18       2.6093      2.00000
     19       2.8124      2.00000
     20       2.8124      2.00000
     21       3.9902     -0.00585
     22       3.9902     -0.00585
     23       6.4161      0.00000
     24       6.6698      0.00000
     25       8.0538      0.00000
     26       8.3768      0.00000
     27       8.3768      0.00000
     28       9.4450      0.00000
     29      10.2209      0.00000
     30      11.8127      0.00000
     31      11.8127      0.00000
     32      12.6487      0.00000


--------------------------------------------------------------------------------------------------------


 soft charge-density along one line, spin component           1
         0         1         2         3         4         5         6         7         8         9
 total charge-density along one line
 
 pseudopotential strength for first ion, spin component:           1
  6.278   9.547  -0.005   0.002   0.008  -0.007   0.003   0.013
  9.547  14.511  -0.007   0.003   0.012  -0.011   0.005   0.019
 -0.005  -0.007  -2.095   0.000   0.000  -3.541   0.000   0.000
  0.002   0.003   0.000  -2.094   0.000   0.000  -3.539   0.000
  0.008   0.012   0.000   0.000  -2.095   0.000   0.000  -3.541
 -0.007  -0.011  -3.541   0.000   0.000  -5.783   0.000   0.001
  0.003   0.005   0.000  -3.539   0.000   0.000  -5.780   0.000
  0.013   0.019   0.000   0.000  -3.541   0.001   0.000  -5.784
 total augmentation occupancy for first ion, spin component:           1
  3.739  -1.005  -0.140   0.131   0.243   0.075  -0.058  -0.130
 -1.005   0.293   0.096  -0.067  -0.166  -0.037   0.025   0.064
 -0.140   0.096   3.297   0.021  -0.242  -0.903  -0.007   0.062
  0.131  -0.067   0.021   3.248  -0.036  -0.007  -0.889   0.012
  0.243  -0.166  -0.242  -0.036   3.576   0.062   0.011  -0.975
  0.075  -0.037  -0.903  -0.007   0.062   0.254   0.002  -0.017
 -0.058   0.025  -0.007  -0.889   0.011   0.002   0.249  -0.003
 -0.130   0.064   0.062   0.012  -0.975  -0.017  -0.003   0.274


------------------------ aborting loop because EDIFF is reached ----------------------------------------


    CHARGE:  cpu time    0.12: real time    0.12
    FORLOC:  cpu time    0.01: real time    0.00
    FORNL :  cpu time    1.25: real time    1.27
    STRESS:  cpu time    3.77: real time    3.79
    FORCOR:  cpu time    0.03: real time    0.03
    FORHAR:  cpu time    0.01: real time    0.01
    MIXING:  cpu time    0.00: real time    0.00

  FORCE on cell =-STRESS in cart. coord.  units (eV):
  Direction    XX          YY          ZZ          XY          YZ          ZX
  --------------------------------------------------------------------------------------
  Alpha Z   117.28018   117.28018   117.28018
  Ewald    -323.38688  -323.38688  -435.35013     0.00000     0.00000     0.00000
  Hartree    70.82320    70.82320    30.96527     0.00000     0.00000     0.00000
  E(xc)    -135.40283  -135.40283  -135.79191     0.00000     0.00000     0.00000
  Local    -180.11369  -180.11369   -25.91305     0.00000     0.00000     0.00000
  n-local    -9.33196    -8.67124    -7.22596    -1.02611    -0.82608     0.09169
  augment     1.67555     1.67555     1.71084     0.00000     0.00000     0.00000
  Kinetic   460.38588   455.86436   454.30352     3.19044     6.09572    -0.39414
  Fock        0.00000     0.00000     0.00000     0.00000     0.00000     0.00000
  -------------------------------------------------------------------------------------
  Total      -0.00094    -0.00094    -0.02124     0.00000     0.00000     0.00000
  in kB      -0.01317    -0.01317    -0.29597     0.00000     0.00000     0.00000
  external pressure =       -0.11 kB  Pullay stress =        0.00 kB


 VOLUME and BASIS-vectors are now :
 -----------------------------------------------------------------------------
  energy-cutoff  :      318.61
  volume of cell :      114.97
      direct lattice vectors                 reciprocal lattice vectors
     2.854581851  1.648093600  4.072989540     0.175157002  0.101126942  0.081839968
    -2.854581851  1.648093600  4.072989540    -0.175157002  0.101126942  0.081839968
     0.000000000 -3.296187200  4.072989540     0.000000000 -0.202253885  0.081839968

  length of vectors
     5.239665433  5.239665433  5.239665432     0.218184359  0.218184359  0.218184359


 FORCES acting on ions
    electron-ion (+dipol)            ewald-force                    non-local-force                 convergence-correction
 -----------------------------------------------------------------------------------------------
   0.454E+02 -.262E+02 0.185E+02   -.486E+02 0.280E+02 -.193E+02   0.314E+01 -.181E+01 0.730E+00   0.553E-03 -.319E-03 0.124E-03
   0.436E-12 0.524E+02 0.185E+02   0.470E-16 -.561E+02 -.193E+02   0.139E-16 0.363E+01 0.730E+00   -.105E-12 0.639E-03 0.124E-03
   -.454E+02 -.262E+02 0.185E+02   0.486E+02 0.280E+02 -.193E+02   -.314E+01 -.181E+01 0.730E+00   -.553E-03 -.319E-03 0.124E-03
   0.454E+02 0.262E+02 -.185E+02   -.486E+02 -.280E+02 0.193E+02   0.314E+01 0.181E+01 -.730E+00   0.553E-03 0.319E-03 -.124E-03
   -.152E-12 -.524E+02 -.185E+02   -.389E-15 0.561E+02 0.193E+02   -.627E-19 -.363E+01 -.730E+00   0.311E-13 -.639E-03 -.124E-03
   -.454E+02 0.262E+02 -.185E+02   0.486E+02 -.280E+02 0.193E+02   -.314E+01 0.181E+01 -.730E+00   -.553E-03 0.319E-03 -.124E-03
   -.224E+02 0.129E+02 0.425E+02   0.248E+02 -.143E+02 -.464E+02   -.241E+01 0.139E+01 0.382E+01   0.227E-03 -.131E-03 0.239E-03
   -.320E-12 -.258E+02 0.425E+02   -.112E-14 0.286E+02 -.464E+02   0.782E-18 -.278E+01 0.382E+01   0.111E-12 0.262E-03 0.239E-03
   0.224E+02 0.129E+02 0.425E+02   -.248E+02 -.143E+02 -.464E+02   0.241E+01 0.139E+01 0.382E+01   -.227E-03 -.131E-03 0.239E-03
   -.224E+02 -.129E+02 -.425E+02   0.248E+02 0.143E+02 0.464E+02   -.241E+01 -.139E+01 -.382E+01   0.227E-03 0.131E-03 -.239E-03
   0.171E-12 0.258E+02 -.425E+02   0.784E-15 -.286E+02 0.464E+02   -.782E-18 0.278E+01 -.382E+01   0.332E-13 -.262E-03 -.239E-03
   0.224E+02 -.129E+02 -.425E+02   -.248E+02 0.143E+02 0.464E+02   0.241E+01 -.139E+01 -.382E+01   -.227E-03 0.131E-03 -.239E-03
   0.220E-12 0.155E-06 -.197E+02   -.106E-13 0.102E-07 0.199E+02   0.781E-17 -.161E-11 -.187E+00   0.487E-13 -.122E-12 0.836E-04
   -.111E-12 -.155E-06 0.197E+02   -.117E-13 -.102E-07 -.199E+02   -.521E-17 0.161E-11 0.187E+00   -.834E-13 0.102E-12 -.836E-04
 -----------------------------------------------------------------------------------------------
   0.950E-13 -.224E-12 0.354E-12   0.417E-13 -.661E-13 0.355E-13   0.447E-15 -.893E-15 0.444E-15   -.272E-13 0.147E-13 0.231E-12
 
 
 POSITION                                       TOTAL-FORCE (eV/Angst)
 -----------------------------------------------------------------------------------
      1.44529     -0.83444      7.81261        -0.000830      0.000479      0.000700
      0.00000      1.66888      7.81261         0.000000     -0.000958      0.000700
     -1.44529     -0.83444      7.81261         0.000830      0.000479      0.000700
      1.44529      0.83444      4.40636        -0.000830     -0.000479     -0.000700
      0.00000     -1.66888      4.40636         0.000000      0.000958     -0.000700
     -1.44529      0.83444      4.40636         0.000830     -0.000479     -0.000700
      0.93275     -0.53853     10.82515        -0.000353      0.000204     -0.001098
      0.00000      1.07705     10.82515         0.000000     -0.000408     -0.001098
     -0.93275     -0.53853     10.82515         0.000353      0.000204     -0.001098
      0.93275      0.53853      1.39382        -0.000353     -0.000204      0.001098
      0.00000     -1.07705      1.39382         0.000000      0.000408      0.001098
     -0.93275      0.53853      1.39382         0.000353     -0.000204      0.001098
      0.00000      0.00000      4.50418         0.000000      0.000000     -0.004568
      0.00000      0.00000      7.71479         0.000000      0.000000      0.004568
 -----------------------------------------------------------------------------------
    total drift:                                0.000000      0.000000      0.000000


--------------------------------------------------------------------------------------------------------



  FREE ENERGIE OF THE ION-ELECTRON SYSTEM (eV)
  ---------------------------------------------------
  free  energy   TOTEN  =       -91.783815 eV

  energy  without entropy=      -91.786968  energy(sigma->0) =      -91.784866
 
 d Force = 0.8607290E-05[ 0.302E-05, 0.142E-04]  d Energy = 0.8764455E-05-0.157E-06
 d Force =-0.1030839E+00[-0.103E+00,-0.103E+00]  d Ewald  =-0.9072667E-01-0.124E-01


--------------------------------------------------------------------------------------------------------


    POTLOK:  cpu time    0.03: real time    0.03


--------------------------------------------------------------------------------------------------------


 Conjugate gradient step on ions:
 trial-energy change:   -0.000009  1 .order   -0.000009   -0.000015   -0.000003
  (g-gl).g = 0.820E-05      g.g   = 0.917E-05  gl.gl    = 0.373E-04
 g(Force)  = 0.803E-05   g(Stress)= 0.114E-05 ortho     = 0.111E-05
 gamma     =   0.21978
 trial     =   1.56082
 opt step  =   1.94232  (harmonic =   1.94232) maximal distance =0.00039165
 next E    =   -91.783815   (d E  =  -0.00001)


--------------------------------------------------------------------------------------------------------


     LOOP+:  cpu time   16.49: real time   16.60
    4ORBIT:  cpu time    0.00: real time    0.00

 total amount of memory used by VASP on root node    48191. kBytes
========================================================================

   base      :      30000. kBytes
   nonlr-proj:       1885. kBytes
   fftplans  :       1025. kBytes
   grid      :       1926. kBytes
   one-center:         43. kBytes
   wavefun   :      13312. kBytes
 
  
  
 General timing and accounting informations for this job:
 ========================================================
  
                  Total CPU time used (sec):      248.350
                            User time (sec):      247.550
                          System time (sec):        0.800
                         Elapsed time (sec):      250.174
  
                   Maximum memory used (kb):       66628.
                   Average memory used (kb):           0.
  
                          Minor page faults:        17251
                          Major page faults:            0
                 Voluntary context switches:         1081
