 vasp.5.2.12 11Nov11 complex                                                    
  
 executed on             LinuxIFC date 2014.10.15  16:27:40
 running on    4 nodes
 distr:  one band on    1 nodes,    4 groups


--------------------------------------------------------------------------------------------------------


 INCAR:
 POTCAR:    PAW_PBE B 06Sep2000                   
 POTCAR:    PAW_PBE B 06Sep2000                   
   VRHFIN =B: s2p1                                                              
   LEXCH  = PE                                                                  
   EATOM  =    71.1703 eV,    5.2309 Ry                                         
                                                                                
   TITEL  = PAW_PBE B 06Sep2000                                                 
   LULTRA =        F    use ultrasoft PP ?                                      
   IUNSCR =        1    unscreen: 0-lin 1-nonlin 2-no                           
   RPACOR =    1.200    partial core radius                                     
   POMASS =   10.811; ZVAL   =    3.000    mass and valenz                      
   RCORE  =    1.700    outmost cutoff radius                                   
   RWIGS  =    1.710; RWIGS  =    0.905    wigner-seitz radius (au A)           
   ENMAX  =  318.614; ENMIN  =  238.960 eV                                      
   ICORE  =        2    local potential                                         
   LCOR   =        T    correct aug charges                                     
   LPAW   =        T    paw PP                                                  
   EAUG   =  535.514                                                            
   DEXC   =    0.000                                                            
   RMAX   =    1.732    core radius for proj-oper                               
   RAUG   =    1.300    factor for augmentation sphere                          
   RDEP   =    1.757    radius for radial grids                                 
   RDEPT  =    1.436    core radius for aug-charge                              
                                                                                
   Atomic configuration                                                         
    4 entries                                                                   
     n  l   j            E        occ.                                          
     1  0  0.50      -180.5896   2.0000                                         
     2  0  0.50        -9.4431   2.0000                                         
     2  1  0.50        -3.6068   1.0000                                         
     3  2  1.50        -4.0817   0.0000                                         
   Description                                                                  
     l       E           TYP  RCUT    TYP  RCUT                                 
     0     -9.4430752     23  1.500                                             
     0      0.8675899     23  1.500                                             
     1     -3.6067955     23  1.700                                             
     1      6.1086146     23  1.700                                             
     2     -4.0817478      7  1.700                                             
  local pseudopotential read in
  partial core-charges read in
  partial kinetic energy density read in
  atomic valenz-charges read in
  non local Contribution for L=           0  read in
    real space projection operators read in
  non local Contribution for L=           0  read in
    real space projection operators read in
  non local Contribution for L=           1  read in
    real space projection operators read in
  non local Contribution for L=           1  read in
    real space projection operators read in
    PAW grid and wavefunctions read in
 
   number of l-projection  operators is LMAX  =           4
   number of lm-projection operators is LMMAX =           8
 
 Optimization of the real space projectors (new method)

 maximal supplied QI-value         = 22.11
 optimisation between [QCUT,QGAM] = [  9.07, 18.13] = [ 23.01, 92.04] Ry 
 Optimized for a Real-space Cutoff    1.46 Angstroem

   l    n(q)    QCUT    max X(q) W(low)/X(q) W(high)/X(q)  e(spline) 
   0      8     9.065    53.033    0.38E-03    0.70E-03    0.20E-06
   0      8     9.065    34.740    0.38E-03    0.69E-03    0.20E-06
   1      7     9.065    30.949    0.34E-03    0.21E-03    0.23E-06
   1      7     9.065    19.518    0.31E-03    0.17E-03    0.22E-06
  PAW_PBE B 06Sep2000                   :
 energy of atom  1       EATOM=  -71.1703
 kinetic energy error for atom=    0.0071 (will be added to EATOM!!)
 
 
 POSCAR: XYZ: B52Vac6                            
  positions in direct lattice
  velocities in cartesian coordinates
 exchange correlation table for  LEXCH =        8
   RHO(1)=    0.500       N(1)  =     2000
   RHO(2)=  100.500       N(2)  =     4000
 


--------------------------------------------------------------------------------------------------------


 ion  position               nearest neighbor table
   1  0.336  0.100  0.392-  17 1.76  33 1.77  52 1.77  11 1.81  41 1.81  27 1.83   8 2.08
   2  0.164  0.400  0.108-  18 1.76  34 1.77  51 1.77  16 1.81  42 1.81  32 1.83  13 2.08
   3  0.416  0.821  0.908-  10 1.73   8 1.81  35 1.81  24 1.81  43 1.81  19 1.87
   4  0.664  0.900  0.392-  20 1.76  36 1.77  52 1.77  10 1.81  44 1.81  26 1.83   9 2.08
   5  0.584  0.179  0.908-  11 1.73   9 1.81  37 1.81  25 1.81  45 1.81  21 1.87
   6  0.084  0.679  0.592-  15 1.73  13 1.81  38 1.81  29 1.81  46 1.81  22 1.87
   7  0.916  0.321  0.592-  16 1.73  14 1.81  39 1.81  30 1.81  47 1.81  23 1.87
   8  0.336  0.900  0.608-  24 1.76  38 1.77  52 1.77   3 1.81  46 1.81  19 1.83   1 2.08
   9  0.664  0.100  0.608-  25 1.76  39 1.77  52 1.77   5 1.81  47 1.81  21 1.83   4 2.08
  10  0.584  0.821  0.092-   3 1.73   4 1.81  40 1.81  20 1.81  48 1.81  26 1.87
  11  0.416  0.179  0.092-   5 1.73   1 1.81  34 1.81  17 1.81  42 1.81  27 1.87
  12  0.836  0.600  0.108-  28 1.76  40 1.77  51 1.77  15 1.81  48 1.81  31 1.83  14 2.08
  13  0.164  0.600  0.892-  29 1.76  35 1.77  51 1.77   6 1.81  43 1.81  22 1.83   2 2.08
  14  0.836  0.400  0.892-  30 1.76  37 1.77  51 1.77   7 1.81  45 1.81  23 1.83  12 2.08
  15  0.916  0.679  0.408-   6 1.73  12 1.81  36 1.81  28 1.81  44 1.81  31 1.87
  16  0.084  0.321  0.408-   7 1.73   2 1.81  33 1.81  18 1.81  41 1.81  32 1.87
  17  0.236  0.080  0.088-  24 1.67  42 1.75   1 1.76  32 1.79  33 1.80  11 1.81
  18  0.264  0.420  0.412-  29 1.67  41 1.75   2 1.76  27 1.79  34 1.80  16 1.81
  19  0.419  0.712  0.589-  26 1.68  46 1.75  35 1.77  29 1.79   8 1.83   3 1.87
  20  0.764  0.920  0.088-  25 1.67  48 1.75   4 1.76  31 1.79  36 1.80  10 1.81
  21  0.581  0.288  0.589-  27 1.68  47 1.75  37 1.77  30 1.79   9 1.83   5 1.87
  22  0.081  0.788  0.911-  31 1.68  43 1.75  38 1.77  24 1.79  13 1.83   6 1.87
  23  0.919  0.212  0.911-  32 1.68  45 1.75  39 1.77  25 1.79  14 1.83   7 1.87
  24  0.236  0.920  0.912-  17 1.67  43 1.75   8 1.76  22 1.79  38 1.80   3 1.81
  25  0.764  0.080  0.912-  20 1.67  45 1.75   9 1.76  23 1.79  39 1.80   5 1.81
  26  0.581  0.712  0.411-  19 1.68  44 1.75  40 1.77  28 1.79   4 1.83  10 1.87
  27  0.419  0.288  0.411-  21 1.68  41 1.75  34 1.77  18 1.79   1 1.83  11 1.87
  28  0.736  0.580  0.412-  30 1.67  44 1.75  12 1.76  26 1.79  40 1.80  15 1.81
  29  0.264  0.580  0.588-  18 1.67  46 1.75  13 1.76  19 1.79  35 1.80   6 1.81
  30  0.736  0.420  0.588-  28 1.67  47 1.75  14 1.76  21 1.79  37 1.80   7 1.81
  31  0.919  0.788  0.089-  22 1.68  48 1.75  36 1.77  20 1.79  12 1.83  15 1.87
  32  0.081  0.212  0.089-  23 1.68  42 1.75  33 1.77  17 1.79   2 1.83  16 1.87
  33  0.135  0.124  0.392-  49 1.70   1 1.77  32 1.77  41 1.78  17 1.80  16 1.81
  34  0.365  0.376  0.108-  50 1.70   2 1.77  27 1.77  42 1.78  18 1.80  11 1.81
  35  0.365  0.624  0.892-  50 1.70  13 1.77  19 1.77  43 1.78  29 1.80   3 1.81
  36  0.865  0.876  0.392-  49 1.70   4 1.77  31 1.77  44 1.78  20 1.80  15 1.81
  37  0.635  0.376  0.892-  50 1.70  14 1.77  21 1.77  45 1.78  30 1.80   5 1.81
  38  0.135  0.876  0.608-  49 1.70   8 1.77  22 1.77  46 1.78  24 1.80   6 1.81
  39  0.865  0.124  0.608-  49 1.70   9 1.77  23 1.77  47 1.78  25 1.80   7 1.81
  40  0.635  0.624  0.108-  50 1.70  12 1.77  26 1.77  48 1.78  28 1.80  10 1.81
  41  0.249  0.250  0.584-  42 1.67  18 1.75  27 1.75  33 1.78   1 1.81  16 1.81
  42  0.251  0.250  0.916-  41 1.67  17 1.75  32 1.75  34 1.78   2 1.81  11 1.81
  43  0.251  0.750  0.084-  46 1.67  24 1.75  22 1.75  35 1.78  13 1.81   3 1.81
  44  0.751  0.750  0.584-  48 1.67  28 1.75  26 1.75  36 1.78   4 1.81  15 1.81
  45  0.749  0.250  0.084-  47 1.67  25 1.75  23 1.75  37 1.78  14 1.81   5 1.81
  46  0.249  0.750  0.416-  43 1.67  29 1.75  19 1.75  38 1.78   8 1.81   6 1.81
  47  0.751  0.250  0.416-  45 1.67  30 1.75  21 1.75  39 1.78   9 1.81   7 1.81
  48  0.749  0.750  0.916-  44 1.67  20 1.75  31 1.75  40 1.78  12 1.81  10 1.81
  49  0.000  0.000  0.500-  33 1.70  36 1.70  38 1.70  39 1.70
  50  0.500  0.500  0.000-  34 1.70  35 1.70  37 1.70  40 1.70
  51  0.000  0.500  0.000-   2 1.77  12 1.77  13 1.77  14 1.77
  52  0.500  0.000  0.500-   1 1.77   4 1.77   8 1.77   9 1.77
 
  LATTYP: Found a simple orthorhombic cell.
 ALAT       =     5.0128098147
 B/A-ratio  =     1.7445851685
 C/A-ratio  =     1.7726826163
  
  Lattice vectors:
  
 A1 = (   0.0000000000,   0.0000000000,   5.0128098147)
 A2 = (  -8.7452736551,   0.0000000000,   0.0000000000)
 A3 = (   0.0000000000,  -8.8861208174,   0.0000000000)
 Subroutine PRICEL returns:
 Original cell was already a primitive cell.
 

Analysis of symmetry for initial positions (statically):

 Routine SETGRP: Setting up the symmetry group for a 
 simple orthorhombic supercell.


 Subroutine GETGRP returns: Found  8 space group operations
 (whereof  4 operations were pure point group operations)
 out of a pool of  8 trial point group operations.


The static configuration has the point symmetry D_2 .
 The point group associated with its full space group is D_2h.

Analysis of symmetry for dynamics (positions and initial velocities):

 Subroutine DYNSYM returns: Found  8 space group operations
 (whereof  4 operations were pure point group operations)
 out of a pool of  8 trial space group operations
 (whereof  4 operations were pure point group operations)
 and found also     1 'primitive' translations


The dynamic configuration has the point symmetry D_2 .
 The point group associated with its full space group is D_2h.
 
 
 KPOINTS: Automatic mesh                          

Automatic generation of k-mesh.
 
 Subroutine IBZKPT returns following result:
 ===========================================
 
 Found     36 irreducible k-points:
 
 Following reciprocal coordinates:
            Coordinates               Weight
  0.000000  0.000000  0.062500      2.000000
  0.200000  0.000000  0.062500      4.000000
  0.400000  0.000000  0.062500      4.000000
  0.000000  0.200000  0.062500      4.000000
  0.200000  0.200000  0.062500      8.000000
  0.400000  0.200000  0.062500      8.000000
  0.000000  0.400000  0.062500      4.000000
  0.200000  0.400000  0.062500      8.000000
  0.400000  0.400000  0.062500      8.000000
  0.000000  0.000000  0.187500      2.000000
  0.200000  0.000000  0.187500      4.000000
  0.400000  0.000000  0.187500      4.000000
  0.000000  0.200000  0.187500      4.000000
  0.200000  0.200000  0.187500      8.000000
  0.400000  0.200000  0.187500      8.000000
  0.000000  0.400000  0.187500      4.000000
  0.200000  0.400000  0.187500      8.000000
  0.400000  0.400000  0.187500      8.000000
  0.000000  0.000000  0.312500      2.000000
  0.200000  0.000000  0.312500      4.000000
  0.400000  0.000000  0.312500      4.000000
  0.000000  0.200000  0.312500      4.000000
  0.200000  0.200000  0.312500      8.000000
  0.400000  0.200000  0.312500      8.000000
  0.000000  0.400000  0.312500      4.000000
  0.200000  0.400000  0.312500      8.000000
  0.400000  0.400000  0.312500      8.000000
  0.000000  0.000000  0.437500      2.000000
  0.200000  0.000000  0.437500      4.000000
  0.400000  0.000000  0.437500      4.000000
  0.000000  0.200000  0.437500      4.000000
  0.200000  0.200000  0.437500      8.000000
  0.400000  0.200000  0.437500      8.000000
  0.000000  0.400000  0.437500      4.000000
  0.200000  0.400000  0.437500      8.000000
  0.400000  0.400000  0.437500      8.000000
 
 Following cartesian coordinates:
            Coordinates               Weight
  0.000000  0.000000  0.012468      2.000000
  0.022869  0.000000  0.012468      4.000000
  0.045739  0.000000  0.012468      4.000000
  0.000000  0.022507  0.012468      4.000000
  0.022869  0.022507  0.012468      8.000000
  0.045739  0.022507  0.012468      8.000000
  0.000000  0.045014  0.012468      4.000000
  0.022869  0.045014  0.012468      8.000000
  0.045739  0.045014  0.012468      8.000000
  0.000000  0.000000  0.037404      2.000000
  0.022869  0.000000  0.037404      4.000000
  0.045739  0.000000  0.037404      4.000000
  0.000000  0.022507  0.037404      4.000000
  0.022869  0.022507  0.037404      8.000000
  0.045739  0.022507  0.037404      8.000000
  0.000000  0.045014  0.037404      4.000000
  0.022869  0.045014  0.037404      8.000000
  0.045739  0.045014  0.037404      8.000000
  0.000000  0.000000  0.062340      2.000000
  0.022869  0.000000  0.062340      4.000000
  0.045739  0.000000  0.062340      4.000000
  0.000000  0.022507  0.062340      4.000000
  0.022869  0.022507  0.062340      8.000000
  0.045739  0.022507  0.062340      8.000000
  0.000000  0.045014  0.062340      4.000000
  0.022869  0.045014  0.062340      8.000000
  0.045739  0.045014  0.062340      8.000000
  0.000000  0.000000  0.087276      2.000000
  0.022869  0.000000  0.087276      4.000000
  0.045739  0.000000  0.087276      4.000000
  0.000000  0.022507  0.087276      4.000000
  0.022869  0.022507  0.087276      8.000000
  0.045739  0.022507  0.087276      8.000000
  0.000000  0.045014  0.087276      4.000000
  0.022869  0.045014  0.087276      8.000000
  0.045739  0.045014  0.087276      8.000000
 


--------------------------------------------------------------------------------------------------------




 Dimension of arrays:
   k-points           NKPTS =     36   k-points in BZ     NKDIM =     36   number of bands    NBANDS=    108
   number of dos      NEDOS =    301   number of ions     NIONS =     52
   non local maximal  LDIM  =      4   non local SUM 2l+1 LMDIM =      8
   total plane-waves  NPLWV =  38400
   max r-space proj   IRMAX =   1329   max aug-charges    IRDMAX=   1737
   dimension x,y,z NGX =    40 NGY =   40 NGZ =   24
   dimension x,y,z NGXF=    80 NGYF=   80 NGZF=   48
   support grid    NGXF=    80 NGYF=   80 NGZF=   48
   ions per type =              52
 NGX,Y,Z   is equivalent  to a cutoff of   7.60,  7.48,  7.96 a.u.
 NGXF,Y,Z  is equivalent  to a cutoff of  15.21, 14.97, 15.92 a.u.


 I would recommend the setting:
   dimension x,y,z NGX =    38 NGY =   39 NGZ =   22
 SYSTEM =  B52                                     
 POSCAR =  XYZ: B52Vac6                            

 Startparameter for this run:
   NWRITE =      2    write-flag & timer
   PREC   = normal    normal or accurate (medium, high low for compatibility)
   ISTART =      0    job   : 0-new  1-cont  2-samecut
   ICHARG =      2    charge: 1-file 2-atom 10-const
   ISPIN  =      1    spin polarized calculation?
   LNONCOLLINEAR =      F non collinear calculations
   LSORBIT =      F    spin-orbit coupling
   INIWAV =      1    electr: 0-lowe 1-rand  2-diag
   LASPH  =      F    aspherical Exc in radial PAW
   METAGGA=      F    non-selfconsistent MetaGGA calc.

 Electronic Relaxation 1
   ENCUT  =  318.6 eV  23.42 Ry    4.84 a.u.  12.73 12.93  7.30*2*pi/ulx,y,z
   ENINI  =  318.6     initial cutoff
   ENAUG  =  535.5 eV  augmentation charge cutoff
   NELM   =     40;   NELMIN=  2; NELMDL=  0     # of ELM steps 
   EDIFF  = 0.1E-05   stopping-criterion for ELM
   LREAL  =      T    real-space projection
   NLSPLINE    = F    spline interpolate recip. space projectors
   LCOMPAT=      F    compatible to vasp.4.4
   GGA_COMPAT  = T    GGA compatible to vasp.4.4-vasp.4.6
   LMAXPAW     = -100 max onsite density
   LMAXMIX     =    2 max onsite mixed and CHGCAR
   VOSKOWN=      0    Vosko Wilk Nusair interpolation
   ROPT   =   -0.00050
 Ionic relaxation
   EDIFFG = 0.1E-04   stopping-criterion for IOM
   NSW    =     10    number of steps for IOM
   NBLOCK =      1;   KBLOCK =     10    inner block; outer block 
   IBRION =      2    ionic relax: 0-MD 1-quasi-New 2-CG
   NFREE  =      1    steps in history (QN), initial steepest desc. (CG)
   ISIF   =      3    stress and relaxation
   IWAVPR =     11    prediction:  0-non 1-charg 2-wave 3-comb
   ISYM   =      2    0-nonsym 1-usesym 2-fastsym
   LCORR  =      T    Harris-Foulkes like correction to forces

   POTIM  = 0.2500    time-step for ionic-motion
   TEIN   =    0.0    initial temperature
   TEBEG  =    0.0;   TEEND  =   0.0 temperature during run
   SMASS  =  -3.00    Nose mass-parameter (am)
   estimated Nose-frequenzy (Omega)   =  0.10E-29 period in steps =****** mass=  -0.175E-26a.u.
   SCALEE = 1.0000    scale energy and forces
   NPACO  =    256;   APACO  = 16.0  distance and # of slots for P.C.
   PSTRESS=    0.0 pullay stress

  Mass of Ions in am
   POMASS =  10.81
  Ionic Valenz
   ZVAL   =   3.00
  Atomic Wigner-Seitz radii
   RWIGS  =  -1.00
  virtual crystal weights 
   VCA    =   1.00
   NELECT =     156.0000    total number of electrons
   NUPDOWN=      -1.0000    fix difference up-down

 DOS related values:
   EMIN   =  10.00;   EMAX   =-10.00  energy-range for DOS
   EFERMI =   0.00
   ISMEAR =     1;   SIGMA  =   0.20  broadening in eV -4-tet -1-fermi 0-gaus

 Electronic relaxation 2 (details)
   IALGO  =     68    algorithm
   LDIAG  =      T    sub-space diagonalisation (order eigenvalues)
   LSUBROT=      T    optimize rotation matrix (better conditioning)
   TURBO    =      0    0=normal 1=particle mesh
   IRESTART =      0    0=no restart 2=restart with 2 vectors
   NREBOOT  =      0    no. of reboots
   NMIN     =      0    reboot dimension
   EREF     =   0.00    reference energy to select bands
   IMIX   =      4    mixing-type and parameters
     AMIX     =   0.40;   BMIX     =  1.00
     AMIX_MAG =   1.60;   BMIX_MAG =  1.00
     AMIN     =   0.10
     WC   =   100.;   INIMIX=   1;  MIXPRE=   1

 Intra band minimization:
   WEIMIN = 0.0010     energy-eigenvalue tresh-hold
   EBREAK =  0.23E-08  absolut break condition
   DEPER  =   0.30     relativ break condition  

   TIME   =   0.40     timestep for ELM

  volume/ion in A,a.u.               =       7.49        50.55
  Fermi-wavevector in a.u.,A,eV,Ry     =   1.206685  2.280305 19.811305  1.456090
  Thomas-Fermi vector in A             =   2.342345
 
 Write flags
   LWAVE  =      F    write WAVECAR
   LCHARG =      F    write CHGCAR
   LVTOT  =      F    write LOCPOT, total local potential
   LVHAR  =      F    write LOCPOT, Hartree potential only
   LELF   =      F    write electronic localiz. function (ELF)
   LORBIT =      0    0 simple, 1 ext, 2 COOP (PROOUT)


 Dipole corrections
   LMONO  =      F    monopole corrections only (constant potential shift)
   LDIPOL =      F    correct potential (dipole corrections)
   IDIPOL =      0    1-x, 2-y, 3-z, 4-all directions 
   EPSILON=  1.0000000 bulk dielectric constant

 Exchange correlation treatment:
   GGA     =    --    GGA type
   LEXCH   =     8    internal setting for exchange type
   VOSKOWN=      0    Vosko Wilk Nusair interpolation
   LHFCALC =     F    Hartree Fock is set to
   LHFONE  =     F    Hartree Fock one center treatment
   AEXX    =    0.0000 exact exchange contribution

 Linear response parameters
   LEPSILON=     F    determine dielectric tensor
   LRPA    =     F    only Hartree local field effects (RPA)
   LNABLA  =     F    use nabla operator in PAW spheres
   LVEL    =     F    velocity operator in full k-point grid
   LINTERFAST=   F  fast interpolation
   KINTER  =     0    interpolate to denser k-point grid
   CSHIFT  =0.1000    complex shift for real part using Kramers Kronig
   OMEGAMAX=  -1.0    maximum frequency
   RTIME   =    0.100 relaxation time in fs

 Orbital magnetization related:
   ORBITALMAG=     F  switch on orbital magnetization
   LCHIMAG   =     F  perturbation theory with respect to B field
   DQ        =  0.001000  dq finite difference perturbation B field



--------------------------------------------------------------------------------------------------------


 conjugate gradient relaxation of ions
 charge density and potential will be updated during run
 non-spin polarized calculation
 RMM-DIIS sequential band-by-band and
  variant of blocked Davidson during initial phase
 perform sub-space diagonalisation
    before iterative eigenvector-optimisation
 modified Broyden-mixing scheme, WC =      100.0
 initial mixing is a Kerker type mixing with AMIX =  0.4000 and BMIX =      1.0000
 Hartree-type preconditioning will be used
 using additional bands           30
 real space projection scheme for non local part
 use partial core corrections
 calculate Harris-corrections to forces 
   (improved forces if not selfconsistent)
 use gradient corrections 
 use of overlap-Matrix (Vanderbilt PP)
 Methfessel and Paxton  Order N= 1 SIGMA  =   0.20


--------------------------------------------------------------------------------------------------------


  energy-cutoff  :      318.61
  volume of cell :      389.55
      direct lattice vectors                 reciprocal lattice vectors
     8.745273655  0.000000000  0.000000000     0.114347480  0.000000000  0.000000000
     0.000000000  8.886120817  0.000000000     0.000000000  0.112535044  0.000000000
     0.000000000  0.000000000  5.012809815     0.000000000  0.000000000  0.199488917

  length of vectors
     8.745273655  8.886120817  5.012809815     0.114347480  0.112535044  0.199488917


 
 k-points in units of 2pi/SCALE and weight: Automatic mesh                          
   0.00000000  0.00000000  0.01246806       0.010
   0.02286950  0.00000000  0.01246806       0.020
   0.04573899  0.00000000  0.01246806       0.020
   0.00000000  0.02250701  0.01246806       0.020
   0.02286950  0.02250701  0.01246806       0.040
   0.04573899  0.02250701  0.01246806       0.040
   0.00000000  0.04501402  0.01246806       0.020
   0.02286950  0.04501402  0.01246806       0.040
   0.04573899  0.04501402  0.01246806       0.040
   0.00000000  0.00000000  0.03740417       0.010
   0.02286950  0.00000000  0.03740417       0.020
   0.04573899  0.00000000  0.03740417       0.020
   0.00000000  0.02250701  0.03740417       0.020
   0.02286950  0.02250701  0.03740417       0.040
   0.04573899  0.02250701  0.03740417       0.040
   0.00000000  0.04501402  0.03740417       0.020
   0.02286950  0.04501402  0.03740417       0.040
   0.04573899  0.04501402  0.03740417       0.040
   0.00000000  0.00000000  0.06234029       0.010
   0.02286950  0.00000000  0.06234029       0.020
   0.04573899  0.00000000  0.06234029       0.020
   0.00000000  0.02250701  0.06234029       0.020
   0.02286950  0.02250701  0.06234029       0.040
   0.04573899  0.02250701  0.06234029       0.040
   0.00000000  0.04501402  0.06234029       0.020
   0.02286950  0.04501402  0.06234029       0.040
   0.04573899  0.04501402  0.06234029       0.040
   0.00000000  0.00000000  0.08727640       0.010
   0.02286950  0.00000000  0.08727640       0.020
   0.04573899  0.00000000  0.08727640       0.020
   0.00000000  0.02250701  0.08727640       0.020
   0.02286950  0.02250701  0.08727640       0.040
   0.04573899  0.02250701  0.08727640       0.040
   0.00000000  0.04501402  0.08727640       0.020
   0.02286950  0.04501402  0.08727640       0.040
   0.04573899  0.04501402  0.08727640       0.040
 
 k-points in reciprocal lattice and weights: Automatic mesh                          
   0.00000000  0.00000000  0.06250000       0.010
   0.20000000  0.00000000  0.06250000       0.020
   0.40000000  0.00000000  0.06250000       0.020
   0.00000000  0.20000000  0.06250000       0.020
   0.20000000  0.20000000  0.06250000       0.040
   0.40000000  0.20000000  0.06250000       0.040
   0.00000000  0.40000000  0.06250000       0.020
   0.20000000  0.40000000  0.06250000       0.040
   0.40000000  0.40000000  0.06250000       0.040
   0.00000000  0.00000000  0.18750000       0.010
   0.20000000  0.00000000  0.18750000       0.020
   0.40000000  0.00000000  0.18750000       0.020
   0.00000000  0.20000000  0.18750000       0.020
   0.20000000  0.20000000  0.18750000       0.040
   0.40000000  0.20000000  0.18750000       0.040
   0.00000000  0.40000000  0.18750000       0.020
   0.20000000  0.40000000  0.18750000       0.040
   0.40000000  0.40000000  0.18750000       0.040
   0.00000000  0.00000000  0.31250000       0.010
   0.20000000  0.00000000  0.31250000       0.020
   0.40000000  0.00000000  0.31250000       0.020
   0.00000000  0.20000000  0.31250000       0.020
   0.20000000  0.20000000  0.31250000       0.040
   0.40000000  0.20000000  0.31250000       0.040
   0.00000000  0.40000000  0.31250000       0.020
   0.20000000  0.40000000  0.31250000       0.040
   0.40000000  0.40000000  0.31250000       0.040
   0.00000000  0.00000000  0.43750000       0.010
   0.20000000  0.00000000  0.43750000       0.020
   0.40000000  0.00000000  0.43750000       0.020
   0.00000000  0.20000000  0.43750000       0.020
   0.20000000  0.20000000  0.43750000       0.040
   0.40000000  0.20000000  0.43750000       0.040
   0.00000000  0.40000000  0.43750000       0.020
   0.20000000  0.40000000  0.43750000       0.040
   0.40000000  0.40000000  0.43750000       0.040
 
 position of ions in fractional coordinates (direct lattice) 
   0.33553878  0.09976662  0.39216275
   0.16446122  0.40023338  0.10783725
   0.41638199  0.82067235  0.90791120
   0.66446122  0.90023338  0.39216275
   0.58361801  0.17932765  0.90791120
   0.08361801  0.67932765  0.59208880
   0.91638199  0.32067235  0.59208880
   0.33553878  0.90023338  0.60783725
   0.66446122  0.09976662  0.60783725
   0.58361801  0.82067235  0.09208880
   0.41638199  0.17932765  0.09208880
   0.83553878  0.59976662  0.10783725
   0.16446122  0.59976662  0.89216275
   0.83553878  0.40023338  0.89216275
   0.91638199  0.67932765  0.40791120
   0.08361801  0.32067235  0.40791120
   0.23605045  0.07976054  0.08817298
   0.26394955  0.42023946  0.41182702
   0.41911472  0.71192828  0.58947772
   0.76394955  0.92023946  0.08817298
   0.58088528  0.28807172  0.58947772
   0.08088528  0.78807172  0.91052228
   0.91911472  0.21192828  0.91052228
   0.23605045  0.92023946  0.91182702
   0.76394955  0.07976054  0.91182702
   0.58088528  0.71192828  0.41052228
   0.41911472  0.28807172  0.41052228
   0.73605045  0.57976054  0.41182702
   0.26394955  0.57976054  0.58817298
   0.73605045  0.42023946  0.58817298
   0.91911472  0.78807172  0.08947772
   0.08088528  0.21192828  0.08947772
   0.13471437  0.12387341  0.39189567
   0.36528563  0.37612659  0.10810433
   0.36528563  0.62387341  0.89189567
   0.86528563  0.87612659  0.39189567
   0.63471437  0.37612659  0.89189567
   0.13471437  0.87612659  0.60810433
   0.86528563  0.12387341  0.60810433
   0.63471437  0.62387341  0.10810433
   0.24916953  0.24968451  0.58383195
   0.25083047  0.25031549  0.91616805
   0.25083047  0.74968451  0.08383195
   0.75083047  0.75031549  0.58383195
   0.74916953  0.25031549  0.08383195
   0.24916953  0.75031549  0.41616805
   0.75083047  0.24968451  0.41616805
   0.74916953  0.74968451  0.91616805
   0.00000000  0.00000000  0.50000000
   0.50000000  0.50000000  0.00000000
   0.00000000  0.50000000  0.00000000
   0.50000000  0.00000000  0.50000000
 
 position of ions in cartesian coordinates  (Angst):
   2.93437846  0.88653823  1.96583730
   1.43825837  3.55652218  0.54056761
   3.64137442  7.29259365  4.55118618
   5.81089520  7.99958259  1.96583730
   5.10389923  1.59352717  4.55118618
   0.73126241  6.03658758  2.96802854
   8.01401125  2.84953324  2.96802854
   2.93437846  7.99958259  3.04697251
   5.81089520  0.88653823  3.04697251
   5.10389923  7.29259365  0.46162364
   3.64137442  1.59352717  0.46162364
   7.30701528  5.32959864  0.54056761
   1.43825837  5.32959864  4.47224221
   7.30701528  3.55652218  4.47224221
   8.01401125  6.03658758  2.04478127
   0.73126241  2.84953324  2.04478127
   2.06432582  0.70876183  0.44199436
   2.30831100  3.73429858  2.06441055
   3.66527289  6.32628068  2.95493970
   6.68094783  8.17735899  0.44199436
   5.08000077  2.55984013  2.95493970
   0.70736394  7.00290054  4.56427503
   8.03790971  1.88322027  4.56427503
   2.06432582  8.17735899  4.57081545
   6.68094783  0.70876183  4.57081545
   5.08000077  6.32628068  2.05787012
   3.66527289  2.55984013  2.05787012
   6.43696265  5.15182224  2.06441055
   2.30831100  5.15182224  2.94839927
   6.43696265  3.73429858  2.94839927
   8.03790971  7.00290054  0.44853479
   0.70736394  1.88322027  0.44853479
   1.17811405  1.10075406  1.96449847
   3.19452278  3.34230635  0.54190644
   3.19452278  5.54381447  4.47090338
   7.56715961  7.78536676  1.96449847
   5.55075087  3.34230635  4.47090338
   1.17811405  7.78536676  3.04831135
   7.56715961  1.10075406  3.04831135
   5.55075087  5.54381447  0.54190644
   2.17905574  2.21872673  2.92663851
   2.19358108  2.22433368  4.59257621
   2.19358108  6.66178714  0.42023360
   6.56621791  6.66739409  2.92663851
   6.55169257  2.22433368  0.42023360
   2.17905574  6.66739409  2.08617131
   6.56621791  2.21872673  2.08617131
   6.55169257  6.66178714  4.59257621
   0.00000000  0.00000000  2.50640491
   4.37263683  4.44306041  0.00000000
   0.00000000  4.44306041  0.00000000
   4.37263683  0.00000000  2.50640491
 


--------------------------------------------------------------------------------------------------------


 k-point  1 :  0.00000.00000.0625  plane waves:    5053
 k-point  2 :  0.20000.00000.0625  plane waves:    5035
 k-point  3 :  0.40000.00000.0625  plane waves:    5017
 k-point  4 :  0.00000.20000.0625  plane waves:    5051
 k-point  5 :  0.20000.20000.0625  plane waves:    5035
 k-point  6 :  0.40000.20000.0625  plane waves:    5028
 k-point  7 :  0.00000.40000.0625  plane waves:    5042
 k-point  8 :  0.20000.40000.0625  plane waves:    5038
 k-point  9 :  0.40000.40000.0625  plane waves:    5038
 k-point 10 :  0.00000.00000.1875  plane waves:    5019
 k-point 11 :  0.20000.00000.1875  plane waves:    5019
 k-point 12 :  0.40000.00000.1875  plane waves:    5035
 k-point 13 :  0.00000.20000.1875  plane waves:    5034
 k-point 14 :  0.20000.20000.1875  plane waves:    5023
 k-point 15 :  0.40000.20000.1875  plane waves:    5032
 k-point 16 :  0.00000.40000.1875  plane waves:    5026
 k-point 17 :  0.20000.40000.1875  plane waves:    5053
 k-point 18 :  0.40000.40000.1875  plane waves:    5039
 k-point 19 :  0.00000.00000.3125  plane waves:    5024
 k-point 20 :  0.20000.00000.3125  plane waves:    5019
 k-point 21 :  0.40000.00000.3125  plane waves:    5027
 k-point 22 :  0.00000.20000.3125  plane waves:    5024
 k-point 23 :  0.20000.20000.3125  plane waves:    5029
 k-point 24 :  0.40000.20000.3125  plane waves:    5021
 k-point 25 :  0.00000.40000.3125  plane waves:    5024
 k-point 26 :  0.20000.40000.3125  plane waves:    5031
 k-point 27 :  0.40000.40000.3125  plane waves:    5035
 k-point 28 :  0.00000.00000.4375  plane waves:    5018
 k-point 29 :  0.20000.00000.4375  plane waves:    5030
 k-point 30 :  0.40000.00000.4375  plane waves:    5048
 k-point 31 :  0.00000.20000.4375  plane waves:    5026
 k-point 32 :  0.20000.20000.4375  plane waves:    5025
 k-point 33 :  0.40000.20000.4375  plane waves:    5030
 k-point 34 :  0.00000.40000.4375  plane waves:    5033
 k-point 35 :  0.20000.40000.4375  plane waves:    5032
 k-point 36 :  0.40000.40000.4375  plane waves:    5026

 maximum and minimum number of plane-waves per node :      5053     5017

 maximum number of plane-waves:      5053
 maximum index in each direction: 
   IXMAX=   12   IYMAX=   12   IZMAX=    7
   IXMIN=  -13   IYMIN=  -13   IZMIN=   -7

 WARNING: aliasing errors must be expected set NGX to  52 to avoid them
 WARNING: aliasing errors must be expected set NGY to  52 to avoid them
 WARNING: aliasing errors must be expected set NGZ to  30 to avoid them
 aliasing errors are usually negligible using standard VASP settings
 and one can safely disregard these warnings

 serial   3D FFT for wavefunctions
 parallel 3D FFT for charge:
    minimum data exchange during FFTs selected (reduces bandwidth)


 total amount of memory used by VASP on root node   129174. kBytes
========================================================================

   base      :      30000. kBytes
   nonlr-proj:       5716. kBytes
   fftplans  :       2849. kBytes
   grid      :       5350. kBytes
   one-center:        159. kBytes
   wavefun   :      85100. kBytes
 
 Broyden mixing: mesh for mixing (old mesh)
   NGX = 25   NGY = 25   NGZ = 15
  (NGX  = 80   NGY  = 80   NGZ  = 48)
  gives a total of   9375 points

 initial charge density was supplied:
 charge density of overlapping atoms calculated
 number of electron     156.0000000 magnetization 
 keeping initial charge density in first step


--------------------------------------------------------------------------------------------------------


 Maximum index for non-local projection operator         1268
 Maximum index for augmentation-charges          380 (set IRDMAX)


--------------------------------------------------------------------------------------------------------


 First call to EWALD:  gamma=   0.243
 Maximum number of real-space cells 2x 2x 4
 Maximum number of reciprocal cells 3x 3x 2

    FEWALD:  cpu time    0.01: real time    0.01


----------------------------------------- Iteration    1(   1)  ---------------------------------------


    POTLOK:  cpu time    0.07: real time    0.07
    SETDIJ:  cpu time    0.02: real time    0.02
     EDDAV:  cpu time   17.67: real time   17.69
       DOS:  cpu time    0.01: real time    0.01
    --------------------------------------------
      LOOP:  cpu time   17.77: real time   17.78

 eigenvalue-minimisations  :  7904
 total energy-change (2. order) : 0.2203966E+03  (-0.5360913E+04)
 number of electron     156.0000000 magnetization 
 augmentation part      156.0000000 magnetization 

 Free energy of the ion-electron system (eV)
  ---------------------------------------------------
  alpha Z        PSCENC =       477.52633697
  Ewald energy   TEWEN  =     -4311.46231683
  -1/2 Hartree   DENC   =      -352.41709664
  -exchange  EXHF       =         0.00000000
  -V(xc)+E(xc)   XCENC  =       374.98559906
  PAW double counting   =      2261.99300629    -2217.51636903
  entropy T*S    EENTRO =         0.00204967
  eigenvalues    EBANDS =       286.80108077
  atomic energy  EATOM  =      3700.48435922
  ---------------------------------------------------
  free energy    TOTEN  =       220.39664948 eV

  energy without entropy =      220.39459981  energy(sigma->0) =      220.39596626


--------------------------------------------------------------------------------------------------------




----------------------------------------- Iteration    1(   2)  ---------------------------------------


     EDDAV:  cpu time   24.21: real time   24.23
       DOS:  cpu time    0.01: real time    0.01
    --------------------------------------------
      LOOP:  cpu time   24.21: real time   24.24

 eigenvalue-minimisations  :  9916
 total energy-change (2. order) :-0.5593611E+03  (-0.5276274E+03)
 number of electron     156.0000000 magnetization 
 augmentation part      156.0000000 magnetization 

 Free energy of the ion-electron system (eV)
  ---------------------------------------------------
  alpha Z        PSCENC =       477.52633697
  Ewald energy   TEWEN  =     -4311.46231683
  -1/2 Hartree   DENC   =      -352.41709664
  -exchange  EXHF       =         0.00000000
  -V(xc)+E(xc)   XCENC  =       374.98559906
  PAW double counting   =      2261.99300629    -2217.51636903
  entropy T*S    EENTRO =         0.01050626
  eigenvalues    EBANDS =      -272.56844300
  atomic energy  EATOM  =      3700.48435922
  ---------------------------------------------------
  free energy    TOTEN  =      -338.96441769 eV

  energy without entropy =     -338.97492395  energy(sigma->0) =     -338.96791978


--------------------------------------------------------------------------------------------------------




----------------------------------------- Iteration    1(   3)  ---------------------------------------


     EDDAV:  cpu time   23.36: real time   23.39
       DOS:  cpu time    0.01: real time    0.01
    --------------------------------------------
      LOOP:  cpu time   23.37: real time   23.40

 eigenvalue-minimisations  :  9472
 total energy-change (2. order) :-0.2626780E+02  (-0.2585769E+02)
 number of electron     156.0000000 magnetization 
 augmentation part      156.0000000 magnetization 

 Free energy of the ion-electron system (eV)
  ---------------------------------------------------
  alpha Z        PSCENC =       477.52633697
  Ewald energy   TEWEN  =     -4311.46231683
  -1/2 Hartree   DENC   =      -352.41709664
  -exchange  EXHF       =         0.00000000
  -V(xc)+E(xc)   XCENC  =       374.98559906
  PAW double counting   =      2261.99300629    -2217.51636903
  entropy T*S    EENTRO =         0.01267670
  eigenvalues    EBANDS =      -298.83840875
  atomic energy  EATOM  =      3700.48435922
  ---------------------------------------------------
  free energy    TOTEN  =      -365.23221300 eV

  energy without entropy =     -365.24488971  energy(sigma->0) =     -365.23643857


--------------------------------------------------------------------------------------------------------




----------------------------------------- Iteration    1(   4)  ---------------------------------------


     EDDAV:  cpu time   21.04: real time   21.06
       DOS:  cpu time    0.01: real time    0.01
    --------------------------------------------
      LOOP:  cpu time   21.05: real time   21.07

 eigenvalue-minimisations  :  9504
 total energy-change (2. order) :-0.3953620E+00  (-0.3937540E+00)
 number of electron     156.0000000 magnetization 
 augmentation part      156.0000000 magnetization 

 Free energy of the ion-electron system (eV)
  ---------------------------------------------------
  alpha Z        PSCENC =       477.52633697
  Ewald energy   TEWEN  =     -4311.46231683
  -1/2 Hartree   DENC   =      -352.41709664
  -exchange  EXHF       =         0.00000000
  -V(xc)+E(xc)   XCENC  =       374.98559906
  PAW double counting   =      2261.99300629    -2217.51636903
  entropy T*S    EENTRO =         0.01283031
  eigenvalues    EBANDS =      -299.23392431
  atomic energy  EATOM  =      3700.48435922
  ---------------------------------------------------
  free energy    TOTEN  =      -365.62757496 eV

  energy without entropy =     -365.64040527  energy(sigma->0) =     -365.63185173


--------------------------------------------------------------------------------------------------------




----------------------------------------- Iteration    1(   5)  ---------------------------------------


     EDDAV:  cpu time   21.51: real time   21.53
       DOS:  cpu time    0.01: real time    0.01
    CHARGE:  cpu time    0.72: real time    0.72
    MIXING:  cpu time    0.00: real time    0.00
    --------------------------------------------
      LOOP:  cpu time   22.25: real time   22.27

 eigenvalue-minimisations  :  9344
 total energy-change (2. order) :-0.8076781E-02  (-0.8067463E-02)
 number of electron     156.0000000 magnetization 
 augmentation part       -0.4707098 magnetization 

 Broyden mixing:
  rms(total) = 0.23949E+01    rms(broyden)= 0.23944E+01
  rms(prec ) = 0.33947E+01
  weight for this iteration     100.00

 Free energy of the ion-electron system (eV)
  ---------------------------------------------------
  alpha Z        PSCENC =       477.52633697
  Ewald energy   TEWEN  =     -4311.46231683
  -1/2 Hartree   DENC   =      -352.41709664
  -exchange  EXHF       =         0.00000000
  -V(xc)+E(xc)   XCENC  =       374.98559906
  PAW double counting   =      2261.99300629    -2217.51636903
  entropy T*S    EENTRO =         0.01284122
  eigenvalues    EBANDS =      -299.24201200
  atomic energy  EATOM  =      3700.48435922
  ---------------------------------------------------
  free energy    TOTEN  =      -365.63565174 eV

  energy without entropy =     -365.64849296  energy(sigma->0) =     -365.63993215


--------------------------------------------------------------------------------------------------------




----------------------------------------- Iteration    1(   6)  ---------------------------------------


    POTLOK:  cpu time    0.07: real time    0.07
    SETDIJ:  cpu time    0.02: real time    0.02
    EDDIAG:  cpu time    2.51: real time    2.51
  RMM-DIIS:  cpu time   10.22: real time   10.23
    ORTHCH:  cpu time    0.75: real time    0.75
       DOS:  cpu time    0.01: real time    0.01
    CHARGE:  cpu time    0.73: real time    0.74
    MIXING:  cpu time    0.00: real time    0.00
    --------------------------------------------
      LOOP:  cpu time   14.31: real time   14.33

 eigenvalue-minimisations  :  7776
 total energy-change (2. order) : 0.1562152E+02  (-0.2107777E+01)
 number of electron     156.0000000 magnetization 
 augmentation part       -0.5699433 magnetization 

 Broyden mixing:
  rms(total) = 0.13343E+01    rms(broyden)= 0.13342E+01
  rms(prec ) = 0.16792E+01
  weight for this iteration     100.00

 eigenvalues of (default mixing * dielectric matrix)
  average eigenvalue GAMMA=   1.9598
  1.9598

 Free energy of the ion-electron system (eV)
  ---------------------------------------------------
  alpha Z        PSCENC =       477.52633697
  Ewald energy   TEWEN  =     -4311.46231683
  -1/2 Hartree   DENC   =      -424.65357945
  -exchange  EXHF       =         0.00000000
  -V(xc)+E(xc)   XCENC  =       379.31208666
  PAW double counting   =      5800.31165872    -5757.95122935
  entropy T*S    EENTRO =         0.01260007
  eigenvalues    EBANDS =      -213.59404641
  atomic energy  EATOM  =      3700.48435922
  ---------------------------------------------------
  free energy    TOTEN  =      -350.01413040 eV

  energy without entropy =     -350.02673046  energy(sigma->0) =     -350.01833042


--------------------------------------------------------------------------------------------------------




----------------------------------------- Iteration    1(   7)  ---------------------------------------


    POTLOK:  cpu time    0.07: real time    0.07
    SETDIJ:  cpu time    0.02: real time    0.02
    EDDIAG:  cpu time    2.55: real time    2.55
  RMM-DIIS:  cpu time   11.88: real time   11.89
    ORTHCH:  cpu time    0.86: real time    0.86
       DOS:  cpu time    0.01: real time    0.01
    CHARGE:  cpu time    0.85: real time    0.85
    MIXING:  cpu time    0.00: real time    0.00
    --------------------------------------------
      LOOP:  cpu time   16.23: real time   16.25

 eigenvalue-minimisations  :  7776
 total energy-change (2. order) : 0.3322529E+01  (-0.6703948E+00)
 number of electron     155.9999999 magnetization 
 augmentation part       -0.6138992 magnetization 

 Broyden mixing:
  rms(total) = 0.49502E+00    rms(broyden)= 0.49501E+00
  rms(prec ) = 0.59299E+00
  weight for this iteration     100.00

 eigenvalues of (default mixing * dielectric matrix)
  average eigenvalue GAMMA=   1.7715
  1.1697  2.3732

 Free energy of the ion-electron system (eV)
  ---------------------------------------------------
  alpha Z        PSCENC =       477.52633697
  Ewald energy   TEWEN  =     -4311.46231683
  -1/2 Hartree   DENC   =      -480.72025328
  -exchange  EXHF       =         0.00000000
  -V(xc)+E(xc)   XCENC  =       383.50864816
  PAW double counting   =     10793.19856746   -10752.44523085
  entropy T*S    EENTRO =         0.01358866
  eigenvalues    EBANDS =      -156.79530070
  atomic energy  EATOM  =      3700.48435922
  ---------------------------------------------------
  free energy    TOTEN  =      -346.69160118 eV

  energy without entropy =     -346.70518984  energy(sigma->0) =     -346.69613073


--------------------------------------------------------------------------------------------------------




----------------------------------------- Iteration    1(   8)  ---------------------------------------


    POTLOK:  cpu time    0.08: real time    0.08
    SETDIJ:  cpu time    0.02: real time    0.02
    EDDIAG:  cpu time    3.18: real time    3.18
  RMM-DIIS:  cpu time   15.29: real time   15.30
    ORTHCH:  cpu time    0.93: real time    0.93
       DOS:  cpu time    0.01: real time    0.01
    CHARGE:  cpu time    0.98: real time    0.98
    MIXING:  cpu time    0.00: real time    0.00
    --------------------------------------------
      LOOP:  cpu time   20.48: real time   20.51

 eigenvalue-minimisations  :  7776
 total energy-change (2. order) : 0.2467158E+00  (-0.1041339E+00)
 number of electron     155.9999999 magnetization 
 augmentation part       -0.6269658 magnetization 

 Broyden mixing:
  rms(total) = 0.10446E+00    rms(broyden)= 0.10443E+00
  rms(prec ) = 0.13760E+00
  weight for this iteration     100.00

 eigenvalues of (default mixing * dielectric matrix)
  average eigenvalue GAMMA=   1.8017
  2.5121  1.3067  1.5863

 Free energy of the ion-electron system (eV)
  ---------------------------------------------------
  alpha Z        PSCENC =       477.52633697
  Ewald energy   TEWEN  =     -4311.46231683
  -1/2 Hartree   DENC   =      -503.00141274
  -exchange  EXHF       =         0.00000000
  -V(xc)+E(xc)   XCENC  =       385.57587203
  PAW double counting   =     14167.12848315   -14126.98512143
  entropy T*S    EENTRO =         0.01313547
  eigenvalues    EBANDS =      -135.72422122
  atomic energy  EATOM  =      3700.48435922
  ---------------------------------------------------
  free energy    TOTEN  =      -346.44488538 eV

  energy without entropy =     -346.45802085  energy(sigma->0) =     -346.44926387


--------------------------------------------------------------------------------------------------------




----------------------------------------- Iteration    1(   9)  ---------------------------------------


    POTLOK:  cpu time    0.08: real time    0.08
    SETDIJ:  cpu time    0.02: real time    0.02
    EDDIAG:  cpu time    3.40: real time    3.41
  RMM-DIIS:  cpu time   15.07: real time   15.09
    ORTHCH:  cpu time    0.94: real time    0.94
       DOS:  cpu time    0.01: real time    0.01
    CHARGE:  cpu time    0.89: real time    0.89
    MIXING:  cpu time    0.00: real time    0.00
    --------------------------------------------
      LOOP:  cpu time   20.41: real time   20.44

 eigenvalue-minimisations  :  7784
 total energy-change (2. order) :-0.3392178E-02  (-0.9142997E-02)
 number of electron     155.9999999 magnetization 
 augmentation part       -0.6334337 magnetization 

 Broyden mixing:
  rms(total) = 0.45476E-01    rms(broyden)= 0.45459E-01
  rms(prec ) = 0.84137E-01
  weight for this iteration     100.00

 eigenvalues of (default mixing * dielectric matrix)
  average eigenvalue GAMMA=   1.6250
  1.0269  1.0269  2.3580  2.0880

 Free energy of the ion-electron system (eV)
  ---------------------------------------------------
  alpha Z        PSCENC =       477.52633697
  Ewald energy   TEWEN  =     -4311.46231683
  -1/2 Hartree   DENC   =      -504.17659956
  -exchange  EXHF       =         0.00000000
  -V(xc)+E(xc)   XCENC  =       385.75643799
  PAW double counting   =     14743.07686895   -14702.89303498
  entropy T*S    EENTRO =         0.01323061
  eigenvalues    EBANDS =      -134.77355992
  atomic energy  EATOM  =      3700.48435922
  ---------------------------------------------------
  free energy    TOTEN  =      -346.44827755 eV

  energy without entropy =     -346.46150816  energy(sigma->0) =     -346.45268776


--------------------------------------------------------------------------------------------------------




----------------------------------------- Iteration    1(  10)  ---------------------------------------


    POTLOK:  cpu time    0.08: real time    0.08
    SETDIJ:  cpu time    0.02: real time    0.02
    EDDIAG:  cpu time    3.13: real time    3.14
  RMM-DIIS:  cpu time   14.76: real time   14.78
    ORTHCH:  cpu time    0.94: real time    0.94
       DOS:  cpu time    0.01: real time    0.01
    CHARGE:  cpu time    0.98: real time    0.98
    MIXING:  cpu time    0.00: real time    0.00
    --------------------------------------------
      LOOP:  cpu time   19.92: real time   19.94

 eigenvalue-minimisations  :  7798
 total energy-change (2. order) : 0.7038164E-02  (-0.3171115E-02)
 number of electron     155.9999999 magnetization 
 augmentation part       -0.6301530 magnetization 

 Broyden mixing:
  rms(total) = 0.19000E-01    rms(broyden)= 0.18988E-01
  rms(prec ) = 0.33711E-01
  weight for this iteration     100.00

 eigenvalues of (default mixing * dielectric matrix)
  average eigenvalue GAMMA=   1.5833
  2.4207  2.2610  1.3115  0.9618  0.9618

 Free energy of the ion-electron system (eV)
  ---------------------------------------------------
  alpha Z        PSCENC =       477.52633697
  Ewald energy   TEWEN  =     -4311.46231683
  -1/2 Hartree   DENC   =      -502.50702048
  -exchange  EXHF       =         0.00000000
  -V(xc)+E(xc)   XCENC  =       385.68954813
  PAW double counting   =     14778.53095029   -14738.29818425
  entropy T*S    EENTRO =         0.01313735
  eigenvalues    EBANDS =      -136.41804979
  atomic energy  EATOM  =      3700.48435922
  ---------------------------------------------------
  free energy    TOTEN  =      -346.44123939 eV

  energy without entropy =     -346.45437674  energy(sigma->0) =     -346.44561851


--------------------------------------------------------------------------------------------------------




----------------------------------------- Iteration    1(  11)  ---------------------------------------


    POTLOK:  cpu time    0.08: real time    0.08
    SETDIJ:  cpu time    0.02: real time    0.02
    EDDIAG:  cpu time    3.39: real time    3.40
  RMM-DIIS:  cpu time   15.16: real time   15.17
    ORTHCH:  cpu time    0.87: real time    0.87
       DOS:  cpu time    0.01: real time    0.01
    CHARGE:  cpu time    0.91: real time    0.91
    MIXING:  cpu time    0.00: real time    0.00
    --------------------------------------------
      LOOP:  cpu time   20.44: real time   20.46

 eigenvalue-minimisations  :  7776
 total energy-change (2. order) : 0.9436481E-03  (-0.2745907E-03)
 number of electron     155.9999999 magnetization 
 augmentation part       -0.6309674 magnetization 

 Broyden mixing:
  rms(total) = 0.41699E-02    rms(broyden)= 0.41673E-02
  rms(prec ) = 0.57992E-02
  weight for this iteration     100.00

 eigenvalues of (default mixing * dielectric matrix)
  average eigenvalue GAMMA=   1.5949
  2.4924  2.1919  1.8005  1.0868  1.0309  0.9669

 Free energy of the ion-electron system (eV)
  ---------------------------------------------------
  alpha Z        PSCENC =       477.52633697
  Ewald energy   TEWEN  =     -4311.46231683
  -1/2 Hartree   DENC   =      -502.80969139
  -exchange  EXHF       =         0.00000000
  -V(xc)+E(xc)   XCENC  =       385.71173658
  PAW double counting   =     14842.84289978   -14802.59785810
  entropy T*S    EENTRO =         0.01320562
  eigenvalues    EBANDS =      -136.14896761
  atomic energy  EATOM  =      3700.48435922
  ---------------------------------------------------
  free energy    TOTEN  =      -346.44029574 eV

  energy without entropy =     -346.45350136  energy(sigma->0) =     -346.44469762


--------------------------------------------------------------------------------------------------------




----------------------------------------- Iteration    1(  12)  ---------------------------------------


    POTLOK:  cpu time    0.08: real time    0.08
    SETDIJ:  cpu time    0.02: real time    0.02
    EDDIAG:  cpu time    3.33: real time    3.33
  RMM-DIIS:  cpu time   14.67: real time   14.68
    ORTHCH:  cpu time    0.94: real time    0.94
       DOS:  cpu time    0.01: real time    0.01
    CHARGE:  cpu time    0.98: real time    0.98
    MIXING:  cpu time    0.00: real time    0.00
    --------------------------------------------
      LOOP:  cpu time   20.02: real time   20.04

 eigenvalue-minimisations  :  7776
 total energy-change (2. order) :-0.1207029E-03  (-0.3394189E-04)
 number of electron     155.9999999 magnetization 
 augmentation part       -0.6309663 magnetization 

 Broyden mixing:
  rms(total) = 0.19934E-02    rms(broyden)= 0.19929E-02
  rms(prec ) = 0.35686E-02
  weight for this iteration     100.00

 eigenvalues of (default mixing * dielectric matrix)
  average eigenvalue GAMMA=   1.5914
  2.5049  2.5049  1.5818  1.5818  1.0301  1.0301  0.9063

 Free energy of the ion-electron system (eV)
  ---------------------------------------------------
  alpha Z        PSCENC =       477.52633697
  Ewald energy   TEWEN  =     -4311.46231683
  -1/2 Hartree   DENC   =      -502.94844487
  -exchange  EXHF       =         0.00000000
  -V(xc)+E(xc)   XCENC  =       385.72067716
  PAW double counting   =     14849.01194137   -14808.76471161
  entropy T*S    EENTRO =         0.01320411
  eigenvalues    EBANDS =      -136.02146197
  atomic energy  EATOM  =      3700.48435922
  ---------------------------------------------------
  free energy    TOTEN  =      -346.44041645 eV

  energy without entropy =     -346.45362056  energy(sigma->0) =     -346.44481782


--------------------------------------------------------------------------------------------------------




----------------------------------------- Iteration    1(  13)  ---------------------------------------


    POTLOK:  cpu time    0.08: real time    0.08
    SETDIJ:  cpu time    0.02: real time    0.02
    EDDIAG:  cpu time    3.40: real time    3.41
  RMM-DIIS:  cpu time   15.17: real time   15.18
    ORTHCH:  cpu time    0.88: real time    0.88
       DOS:  cpu time    0.01: real time    0.01
    CHARGE:  cpu time    0.92: real time    0.92
    MIXING:  cpu time    0.00: real time    0.00
    --------------------------------------------
      LOOP:  cpu time   20.49: real time   20.51

 eigenvalue-minimisations  :  7776
 total energy-change (2. order) :-0.9995125E-05  (-0.6731623E-05)
 number of electron     155.9999999 magnetization 
 augmentation part       -0.6308028 magnetization 

 Broyden mixing:
  rms(total) = 0.88058E-03    rms(broyden)= 0.87998E-03
  rms(prec ) = 0.16647E-02
  weight for this iteration     100.00

 eigenvalues of (default mixing * dielectric matrix)
  average eigenvalue GAMMA=   1.6746
  2.8835  2.4249  2.0562  1.8997  1.2509  0.9455  0.9455  0.9905

 Free energy of the ion-electron system (eV)
  ---------------------------------------------------
  alpha Z        PSCENC =       477.52633697
  Ewald energy   TEWEN  =     -4311.46231683
  -1/2 Hartree   DENC   =      -502.90363639
  -exchange  EXHF       =         0.00000000
  -V(xc)+E(xc)   XCENC  =       385.71939888
  PAW double counting   =     14845.06462593   -14804.81544247
  entropy T*S    EENTRO =         0.01319314
  eigenvalues    EBANDS =      -136.06694490
  atomic energy  EATOM  =      3700.48435922
  ---------------------------------------------------
  free energy    TOTEN  =      -346.44042644 eV

  energy without entropy =     -346.45361958  energy(sigma->0) =     -346.44482415


--------------------------------------------------------------------------------------------------------




----------------------------------------- Iteration    1(  14)  ---------------------------------------


    POTLOK:  cpu time    0.08: real time    0.08
    SETDIJ:  cpu time    0.02: real time    0.02
    EDDIAG:  cpu time    3.39: real time    3.39
  RMM-DIIS:  cpu time   14.73: real time   14.74
    ORTHCH:  cpu time    0.88: real time    0.88
       DOS:  cpu time    0.01: real time    0.01
    CHARGE:  cpu time    0.88: real time    0.88
    MIXING:  cpu time    0.00: real time    0.00
    --------------------------------------------
      LOOP:  cpu time   19.98: real time   20.01

 eigenvalue-minimisations  :  7667
 total energy-change (2. order) :-0.8517090E-06  (-0.1083011E-05)
 number of electron     155.9999999 magnetization 
 augmentation part       -0.6308544 magnetization 

 Broyden mixing:
  rms(total) = 0.15164E-03    rms(broyden)= 0.15151E-03
  rms(prec ) = 0.24955E-03
  weight for this iteration     100.00

 eigenvalues of (default mixing * dielectric matrix)
  average eigenvalue GAMMA=   1.6479
  3.0167  2.4741  2.1240  1.5341  1.5341  1.2557  0.9562  0.9562  0.9803

 Free energy of the ion-electron system (eV)
  ---------------------------------------------------
  alpha Z        PSCENC =       477.52633697
  Ewald energy   TEWEN  =     -4311.46231683
  -1/2 Hartree   DENC   =      -502.95146170
  -exchange  EXHF       =         0.00000000
  -V(xc)+E(xc)   XCENC  =       385.72277053
  PAW double counting   =     14843.78063249   -14803.53216348
  entropy T*S    EENTRO =         0.01319387
  eigenvalues    EBANDS =      -136.02177837
  atomic energy  EATOM  =      3700.48435922
  ---------------------------------------------------
  free energy    TOTEN  =      -346.44042729 eV

  energy without entropy =     -346.45362116  energy(sigma->0) =     -346.44482525


--------------------------------------------------------------------------------------------------------




----------------------------------------- Iteration    1(  15)  ---------------------------------------


    POTLOK:  cpu time    0.08: real time    0.08
    SETDIJ:  cpu time    0.02: real time    0.02
    EDDIAG:  cpu time    3.39: real time    3.40
  RMM-DIIS:  cpu time    9.84: real time    9.84
    ORTHCH:  cpu time    0.94: real time    0.94
       DOS:  cpu time    0.01: real time    0.01
    --------------------------------------------
      LOOP:  cpu time   14.27: real time   14.30

 eigenvalue-minimisations  :  4955
 total energy-change (2. order) :-0.3254008E-06  (-0.7909192E-07)
 number of electron     155.9999999 magnetization 
 augmentation part       -0.6308544 magnetization 

 Free energy of the ion-electron system (eV)
  ---------------------------------------------------
  alpha Z        PSCENC =       477.52633697
  Ewald energy   TEWEN  =     -4311.46231683
  -1/2 Hartree   DENC   =      -502.95796838
  -exchange  EXHF       =         0.00000000
  -V(xc)+E(xc)   XCENC  =       385.72308584
  PAW double counting   =     14843.31924450   -14803.07078869
  entropy T*S    EENTRO =         0.01319515
  eigenvalues    EBANDS =      -136.01557541
  atomic energy  EATOM  =      3700.48435922
  ---------------------------------------------------
  free energy    TOTEN  =      -346.44042762 eV

  energy without entropy =     -346.45362277  energy(sigma->0) =     -346.44482600


--------------------------------------------------------------------------------------------------------




 average (electrostatic) potential at core
  the test charge radii are     0.7672
  (the norm of the test charge is              1.0000)
       1 -27.3762       2 -27.3762       3 -26.5200       4 -27.3762       5 -26.5200
       6 -26.5200       7 -26.5200       8 -27.3762       9 -27.3762      10 -26.5200
      11 -26.5200      12 -27.3762      13 -27.3762      14 -27.3762      15 -26.5200
      16 -26.5200      17 -26.0766      18 -26.0766      19 -26.2155      20 -26.0766
      21 -26.2155      22 -26.2155      23 -26.2155      24 -26.0766      25 -26.0766
      26 -26.2155      27 -26.2155      28 -26.0766      29 -26.0766      30 -26.0766
      31 -26.2155      32 -26.2155      33 -26.7828      34 -26.7828      35 -26.7828
      36 -26.7828      37 -26.7828      38 -26.7828      39 -26.7828      40 -26.7828
      41 -26.0269      42 -26.0269      43 -26.0269      44 -26.0269      45 -26.0269
      46 -26.0269      47 -26.0269      48 -26.0269      49 -26.1367      50 -26.1367
      51 -29.0093      52 -29.0093
 
 
 
 E-fermi :   5.0488     XC(G=0): -11.3829     alpha+bet :-14.8156


 k-point   1 :       0.0000    0.0000    0.0625
  band No.  band energies     occupation 
      1     -10.3732      2.00000
      2      -9.7808      2.00000
      3      -9.7679      2.00000
      4      -9.3117      2.00000
      5      -7.9066      2.00000
      6      -7.3415      2.00000
      7      -6.8859      2.00000
      8      -6.7573      2.00000
      9      -5.7934      2.00000
     10      -5.7146      2.00000
     11      -5.3650      2.00000
     12      -5.2885      2.00000
     13      -5.1885      2.00000
     14      -5.1098      2.00000
     15      -5.0727      2.00000
     16      -4.8427      2.00000
     17      -4.7961      2.00000
     18      -4.2707      2.00000
     19      -3.4769      2.00000
     20      -3.4247      2.00000
     21      -3.2292      2.00000
     22      -3.2273      2.00000
     23      -2.8446      2.00000
     24      -2.6226      2.00000
     25      -2.6154      2.00000
     26      -2.4935      2.00000
     27      -2.2328      2.00000
     28      -2.1110      2.00000
     29      -2.0631      2.00000
     30      -2.0185      2.00000
     31      -1.8604      2.00000
     32      -1.8075      2.00000
     33      -1.4268      2.00000
     34      -0.9039      2.00000
     35      -0.8113      2.00000
     36      -0.3857      2.00000
     37      -0.2748      2.00000
     38      -0.2463      2.00000
     39      -0.1411      2.00000
     40      -0.0256      2.00000
     41       0.0637      2.00000
     42       0.1242      2.00000
     43       0.2542      2.00000
     44       0.3700      2.00000
     45       0.6540      2.00000
     46       0.7768      2.00000
     47       0.9067      2.00000
     48       0.9819      2.00000
     49       1.1692      2.00000
     50       1.2655      2.00000
     51       1.3198      2.00000
     52       1.3466      2.00000
     53       1.3742      2.00000
     54       1.6580      2.00000
     55       1.7282      2.00000
     56       1.8011      2.00000
     57       1.8302      2.00000
     58       2.1464      2.00000
     59       2.2053      2.00000
     60       2.3370      2.00000
     61       2.5289      2.00000
     62       2.7154      2.00000
     63       2.7586      2.00000
     64       2.9112      2.00000
     65       3.0485      2.00000
     66       3.1057      2.00000
     67       3.3932      2.00000
     68       3.4171      2.00000
     69       3.4588      2.00000
     70       3.6889      2.00000
     71       3.9339      2.00000
     72       4.1333      2.00000
     73       4.1911      2.00000
     74       4.2856      2.00000
     75       4.5564      2.00274
     76       4.7098      2.03755
     77       4.7878      2.06915
     78       4.9540      1.71097
     79       5.1956      0.05755
     80       5.9822     -0.00000
     81       6.1181     -0.00000
     82       6.2558     -0.00000
     83       6.3882     -0.00000
     84       6.7897     -0.00000
     85       7.9885     -0.00000
     86       8.3428     -0.00000
     87       8.4435     -0.00000
     88       8.7233     -0.00000
     89       8.8393     -0.00000
     90       9.0707     -0.00000
     91       9.2191     -0.00000
     92       9.7414     -0.00000
     93       9.8060     -0.00000
     94       9.9680     -0.00000
     95      10.4017     -0.00000
     96      10.7074      0.00000
     97      10.8018      0.00000
     98      11.3456      0.00000
     99      11.6131      0.00000
    100      11.6858      0.00000
    101      11.7611      0.00000
    102      11.8266      0.00000
    103      11.9309      0.00000
    104      12.0577      0.00000
    105      12.0997      0.00000
    106      12.2462      0.00000
    107      12.6904      0.00000
    108      12.8768      0.00000

 k-point   2 :       0.2000    0.0000    0.0625
  band No.  band energies     occupation 
      1     -10.3310      2.00000
      2      -9.8515      2.00000
      3      -9.7454      2.00000
      4      -9.3699      2.00000
      5      -7.8073      2.00000
      6      -7.2131      2.00000
      7      -7.0373      2.00000
      8      -6.6203      2.00000
      9      -5.7533      2.00000
     10      -5.7280      2.00000
     11      -5.4454      2.00000
     12      -5.3255      2.00000
     13      -5.2157      2.00000
     14      -5.1731      2.00000
     15      -5.1555      2.00000
     16      -5.0213      2.00000
     17      -4.8123      2.00000
     18      -4.0974      2.00000
     19      -3.7021      2.00000
     20      -3.3579      2.00000
     21      -3.0067      2.00000
     22      -2.9899      2.00000
     23      -2.9856      2.00000
     24      -2.6311      2.00000
     25      -2.4612      2.00000
     26      -2.4197      2.00000
     27      -2.3055      2.00000
     28      -2.2038      2.00000
     29      -2.0774      2.00000
     30      -1.9429      2.00000
     31      -1.9358      2.00000
     32      -1.3967      2.00000
     33      -1.3654      2.00000
     34      -1.0960      2.00000
     35      -0.8652      2.00000
     36      -0.8198      2.00000
     37      -0.4685      2.00000
     38      -0.2601      2.00000
     39      -0.1557      2.00000
     40      -0.0841      2.00000
     41       0.0727      2.00000
     42       0.2130      2.00000
     43       0.3435      2.00000
     44       0.4251      2.00000
     45       0.4631      2.00000
     46       0.7154      2.00000
     47       0.7341      2.00000
     48       1.0070      2.00000
     49       1.2094      2.00000
     50       1.3298      2.00000
     51       1.3571      2.00000
     52       1.4670      2.00000
     53       1.6187      2.00000
     54       1.7015      2.00000
     55       1.8761      2.00000
     56       1.9484      2.00000
     57       2.0462      2.00000
     58       2.2892      2.00000
     59       2.3688      2.00000
     60       2.4464      2.00000
     61       2.6026      2.00000
     62       2.6250      2.00000
     63       2.7584      2.00000
     64       2.8031      2.00000
     65       2.9217      2.00000
     66       3.0228      2.00000
     67       3.0892      2.00000
     68       3.3164      2.00000
     69       3.4705      2.00000
     70       3.5520      2.00000
     71       4.0126      2.00000
     72       4.0357      2.00000
     73       4.1122      2.00000
     74       4.2094      2.00000
     75       4.5136      2.00102
     76       4.6932      2.03057
     77       4.7018      2.03410
     78       4.7959      2.07045
     79       5.4306     -0.02122
     80       5.9592     -0.00000
     81       6.1450     -0.00000
     82       6.2155     -0.00000
     83       6.3917     -0.00000
     84       6.7523     -0.00000
     85       8.1172     -0.00000
     86       8.3791     -0.00000
     87       8.5511     -0.00000
     88       8.7811     -0.00000
     89       9.0328     -0.00000
     90       9.0932     -0.00000
     91       9.2533     -0.00000
     92       9.6145     -0.00000
     93      10.0323     -0.00000
     94      10.1733     -0.00000
     95      10.1930     -0.00000
     96      10.5469      0.00000
     97      10.9070      0.00000
     98      11.1174      0.00000
     99      11.4055      0.00000
    100      11.4458      0.00000
    101      11.6788      0.00000
    102      11.7198      0.00000
    103      11.8265      0.00000
    104      11.9691      0.00000
    105      12.2917      0.00000
    106      12.4262      0.00000
    107      12.5526      0.00000
    108      12.6171      0.00000

 k-point   3 :       0.4000    0.0000    0.0625
  band No.  band energies     occupation 
      1     -10.2102      2.00000
      2     -10.0325      2.00000
      3      -9.6457      2.00000
      4      -9.5047      2.00000
      5      -7.5889      2.00000
      6      -7.3204      2.00000
      7      -6.8268      2.00000
      8      -6.2627      2.00000
      9      -6.2552      2.00000
     10      -5.8143      2.00000
     11      -5.6354      2.00000
     12      -5.4361      2.00000
     13      -5.2245      2.00000
     14      -5.1417      2.00000
     15      -5.1193      2.00000
     16      -4.9836      2.00000
     17      -4.7494      2.00000
     18      -4.1870      2.00000
     19      -3.8170      2.00000
     20      -3.4436      2.00000
     21      -3.1621      2.00000
     22      -2.8976      2.00000
     23      -2.6702      2.00000
     24      -2.6672      2.00000
     25      -2.2748      2.00000
     26      -2.1077      2.00000
     27      -2.0933      2.00000
     28      -2.0640      2.00000
     29      -1.8820      2.00000
     30      -1.8510      2.00000
     31      -1.6095      2.00000
     32      -1.5804      2.00000
     33      -1.4869      2.00000
     34      -1.2463      2.00000
     35      -1.1747      2.00000
     36      -1.0389      2.00000
     37      -0.9626      2.00000
     38      -0.7376      2.00000
     39      -0.1993      2.00000
     40      -0.1767      2.00000
     41      -0.0186      2.00000
     42       0.1087      2.00000
     43       0.2185      2.00000
     44       0.4423      2.00000
     45       0.9606      2.00000
     46       1.0287      2.00000
     47       1.1103      2.00000
     48       1.2154      2.00000
     49       1.3356      2.00000
     50       1.4454      2.00000
     51       1.4654      2.00000
     52       1.5277      2.00000
     53       1.7661      2.00000
     54       1.7843      2.00000
     55       1.8044      2.00000
     56       1.8069      2.00000
     57       1.9578      2.00000
     58       1.9694      2.00000
     59       2.2978      2.00000
     60       2.3544      2.00000
     61       2.6638      2.00000
     62       2.8843      2.00000
     63       2.8912      2.00000
     64       2.9017      2.00000
     65       3.0540      2.00000
     66       3.1184      2.00000
     67       3.2408      2.00000
     68       3.2716      2.00000
     69       3.4337      2.00000
     70       3.4607      2.00000
     71       3.5581      2.00000
     72       3.8473      2.00000
     73       3.9876      2.00000
     74       4.1068      2.00000
     75       4.3364      2.00001
     76       4.3497      2.00001
     77       4.6307      2.01181
     78       4.6733      2.02326
     79       5.9203     -0.00000
     80       5.9819     -0.00000
     81       6.1351     -0.00000
     82       6.2168     -0.00000
     83       6.3959     -0.00000
     84       6.5688     -0.00000
     85       8.3258     -0.00000
     86       8.3529     -0.00000
     87       8.8232     -0.00000
     88       8.8590     -0.00000
     89       9.1127     -0.00000
     90       9.1952     -0.00000
     91       9.3355     -0.00000
     92       9.3637     -0.00000
     93      10.0696     -0.00000
     94      10.4548     -0.00000
     95      10.5558      0.00000
     96      10.5946      0.00000
     97      10.7959      0.00000
     98      11.0736      0.00000
     99      11.0879      0.00000
    100      11.1801      0.00000
    101      11.4391      0.00000
    102      11.6230      0.00000
    103      11.9723      0.00000
    104      11.9806      0.00000
    105      12.1666      0.00000
    106      12.3828      0.00000
    107      12.5857      0.00000
    108      12.6802      0.00000

 k-point   4 :       0.0000    0.2000    0.0625
  band No.  band energies     occupation 
      1     -10.3322      2.00000
      2      -9.8634      2.00000
      3      -9.7336      2.00000
      4      -9.3684      2.00000
      5      -7.7799      2.00000
      6      -7.2481      2.00000
      7      -6.9169      2.00000
      8      -6.7502      2.00000
      9      -5.8715      2.00000
     10      -5.7497      2.00000
     11      -5.4234      2.00000
     12      -5.3255      2.00000
     13      -5.2514      2.00000
     14      -5.2231      2.00000
     15      -5.0541      2.00000
     16      -4.8707      2.00000
     17      -4.8074      2.00000
     18      -4.0481      2.00000
     19      -3.4904      2.00000
     20      -3.3602      2.00000
     21      -3.2105      2.00000
     22      -3.1777      2.00000
     23      -3.0392      2.00000
     24      -2.6773      2.00000
     25      -2.5137      2.00000
     26      -2.4345      2.00000
     27      -2.1565      2.00000
     28      -2.0252      2.00000
     29      -1.9373      2.00000
     30      -1.8963      2.00000
     31      -1.8795      2.00000
     32      -1.7059      2.00000
     33      -1.4220      2.00000
     34      -1.2616      2.00000
     35      -0.8557      2.00000
     36      -0.6562      2.00000
     37      -0.3697      2.00000
     38      -0.1267      2.00000
     39      -0.0701      2.00000
     40      -0.0476      2.00000
     41      -0.0395      2.00000
     42       0.2455      2.00000
     43       0.2881      2.00000
     44       0.3645      2.00000
     45       0.5937      2.00000
     46       0.5959      2.00000
     47       0.7927      2.00000
     48       0.9190      2.00000
     49       1.0864      2.00000
     50       1.1668      2.00000
     51       1.3352      2.00000
     52       1.4635      2.00000
     53       1.5918      2.00000
     54       1.6694      2.00000
     55       1.7677      2.00000
     56       1.8895      2.00000
     57       2.1700      2.00000
     58       2.3317      2.00000
     59       2.3693      2.00000
     60       2.4752      2.00000
     61       2.6059      2.00000
     62       2.6509      2.00000
     63       2.7160      2.00000
     64       2.8042      2.00000
     65       3.0447      2.00000
     66       3.0741      2.00000
     67       3.3278      2.00000
     68       3.3891      2.00000
     69       3.4330      2.00000
     70       3.6440      2.00000
     71       3.8291      2.00000
     72       3.9381      2.00000
     73       4.1958      2.00000
     74       4.3213      2.00000
     75       4.4713      2.00035
     76       4.5635      2.00320
     77       4.7332      2.04817
     78       4.9752      1.57862
     79       5.4053     -0.03023
     80       5.9146     -0.00000
     81       6.0258     -0.00000
     82       6.2292     -0.00000
     83       6.2493     -0.00000
     84       6.6271     -0.00000
     85       8.2979     -0.00000
     86       8.5096     -0.00000
     87       8.6143     -0.00000
     88       8.8502     -0.00000
     89       8.8695     -0.00000
     90       9.1933     -0.00000
     91       9.2052     -0.00000
     92       9.6586     -0.00000
     93       9.8298     -0.00000
     94      10.0415     -0.00000
     95      10.1582     -0.00000
     96      10.7036      0.00000
     97      10.8617      0.00000
     98      11.0217      0.00000
     99      11.4662      0.00000
    100      11.5798      0.00000
    101      11.7260      0.00000
    102      11.8277      0.00000
    103      11.9328      0.00000
    104      12.0997      0.00000
    105      12.2527      0.00000
    106      12.3163      0.00000
    107      12.4677      0.00000
    108      12.6887      0.00000

 k-point   5 :       0.2000    0.2000    0.0625
  band No.  band energies     occupation 
      1     -10.2903      2.00000
      2      -9.8335      2.00000
      3      -9.8087      2.00000
      4      -9.4308      2.00000
      5      -7.6720      2.00000
      6      -7.1356      2.00000
      7      -6.9413      2.00000
      8      -6.7090      2.00000
      9      -5.8762      2.00000
     10      -5.7156      2.00000
     11      -5.4770      2.00000
     12      -5.4547      2.00000
     13      -5.3730      2.00000
     14      -5.2324      2.00000
     15      -5.0783      2.00000
     16      -5.0161      2.00000
     17      -4.8737      2.00000
     18      -3.8839      2.00000
     19      -3.5141      2.00000
     20      -3.2931      2.00000
     21      -3.1260      2.00000
     22      -2.9584      2.00000
     23      -2.8499      2.00000
     24      -2.8437      2.00000
     25      -2.5592      2.00000
     26      -2.3686      2.00000
     27      -2.1235      2.00000
     28      -2.0910      2.00000
     29      -2.0814      2.00000
     30      -1.8797      2.00000
     31      -1.7385      2.00000
     32      -1.5513      2.00000
     33      -1.3889      2.00000
     34      -1.2693      2.00000
     35      -0.9652      2.00000
     36      -0.7362      2.00000
     37      -0.5862      2.00000
     38      -0.4880      2.00000
     39      -0.2533      2.00000
     40      -0.1122      2.00000
     41       0.1309      2.00000
     42       0.2313      2.00000
     43       0.3944      2.00000
     44       0.4107      2.00000
     45       0.5413      2.00000
     46       0.6525      2.00000
     47       0.6858      2.00000
     48       0.8942      2.00000
     49       1.1020      2.00000
     50       1.1909      2.00000
     51       1.4394      2.00000
     52       1.5260      2.00000
     53       1.8030      2.00000
     54       1.9087      2.00000
     55       2.0071      2.00000
     56       2.1248      2.00000
     57       2.2004      2.00000
     58       2.3737      2.00000
     59       2.4968      2.00000
     60       2.5622      2.00000
     61       2.6184      2.00000
     62       2.6446      2.00000
     63       2.7030      2.00000
     64       2.7886      2.00000
     65       2.8675      2.00000
     66       2.9100      2.00000
     67       3.0714      2.00000
     68       3.2296      2.00000
     69       3.3349      2.00000
     70       3.5876      2.00000
     71       3.9004      2.00000
     72       3.9379      2.00000
     73       4.1715      2.00000
     74       4.2380      2.00000
     75       4.3479      2.00001
     76       4.5478      2.00227
     77       4.6607      2.01930
     78       4.8408      2.05757
     79       5.5690     -0.00146
     80       5.8998     -0.00000
     81       6.0453     -0.00000
     82       6.1845     -0.00000
     83       6.2259     -0.00000
     84       6.5851     -0.00000
     85       8.4201     -0.00000
     86       8.5831     -0.00000
     87       8.7312     -0.00000
     88       8.9273     -0.00000
     89       9.0248     -0.00000
     90       9.1837     -0.00000
     91       9.3615     -0.00000
     92       9.5180     -0.00000
     93       9.9127     -0.00000
     94      10.0727     -0.00000
     95      10.2717     -0.00000
     96      10.5400      0.00000
     97      10.8019      0.00000
     98      10.9412      0.00000
     99      11.2361      0.00000
    100      11.5223      0.00000
    101      11.6308      0.00000
    102      11.8357      0.00000
    103      11.9939      0.00000
    104      12.1799      0.00000
    105      12.2738      0.00000
    106      12.4139      0.00000
    107      12.6092      0.00000
    108      12.7801      0.00000

 k-point   6 :       0.4000    0.2000    0.0625
  band No.  band energies     occupation 
      1     -10.1707      2.00000
      2      -9.9952      2.00000
      3      -9.7215      2.00000
      4      -9.5733      2.00000
      5      -7.4478      2.00000
      6      -7.1787      2.00000
      7      -6.7767      2.00000
      8      -6.3588      2.00000
      9      -6.2250      2.00000
     10      -5.8636      2.00000
[...]
     44       0.7066      2.00000
     45       0.9652      2.00000
     46       1.2646      2.00000
     47       1.3996      2.00000
     48       1.4807      2.00000
     49       1.5981      2.00000
     50       1.6416      2.00000
     51       1.7086      2.00000
     52       1.7859      2.00000
     53       1.9094      2.00000
     54       2.0714      2.00000
     55       2.1291      2.00000
     56       2.2205      2.00000
     57       2.2736      2.00000
     58       2.2971      2.00000
     59       2.3879      2.00000
     60       2.4294      2.00000
     61       2.4847      2.00000
     62       2.7015      2.00000
     63       2.7455      2.00000
     64       2.8714      2.00000
     65       2.9490      2.00000
     66       3.1085      2.00000
     67       3.1376      2.00000
     68       3.1734      2.00000
     69       3.2882      2.00000
     70       3.3190      2.00000
     71       3.3941      2.00000
     72       3.4504      2.00000
     73       3.6520      2.00000
     74       3.7835      2.00000
     75       3.8719      2.00000
     76       4.1057      2.00000
     77       4.2673      2.00000
     78       4.4488      2.00018
     79       5.1611      0.19962
     80       5.8211     -0.00000
     81       6.0458     -0.00000
     82       6.3736     -0.00000
     83       6.7884     -0.00000
     84       7.1355     -0.00000
     85       7.8588     -0.00000
     86       8.1840     -0.00000
     87       8.4416     -0.00000
     88       8.7901     -0.00000
     89       8.9753     -0.00000
     90       9.0456     -0.00000
     91       9.7121     -0.00000
     92       9.8034     -0.00000
     93       9.8418     -0.00000
     94      10.0007     -0.00000
     95      10.2109     -0.00000
     96      10.4662     -0.00000
     97      10.5136      0.00000
     98      10.7756      0.00000
     99      10.8039      0.00000
    100      10.8920      0.00000
    101      11.0259      0.00000
    102      11.2106      0.00000
    103      11.2987      0.00000
    104      11.5469      0.00000
    105      11.5830      0.00000
    106      11.7847      0.00000
    107      11.9480      0.00000
    108      12.2325      0.00000


--------------------------------------------------------------------------------------------------------


 soft charge-density along one line, spin component           1
         0         1         2         3         4         5         6         7         8         9
 total charge-density along one line
 
 pseudopotential strength for first ion, spin component:           1
  6.275   9.543  -0.002   0.002   0.000  -0.004   0.004   0.001
  9.543  14.505  -0.003   0.003   0.001  -0.006   0.005   0.001
 -0.002  -0.003  -2.100   0.002   0.001  -3.550   0.004   0.003
  0.002   0.003   0.002  -2.098  -0.001   0.004  -3.547  -0.001
  0.000   0.001   0.001  -0.001  -2.098   0.003  -0.001  -3.548
 -0.004  -0.006  -3.550   0.004   0.003  -5.800   0.007   0.005
  0.004   0.005   0.004  -3.547  -0.001   0.007  -5.794  -0.002
  0.001   0.001   0.003  -0.001  -3.548   0.005  -0.002  -5.797
 total augmentation occupancy for first ion, spin component:           1
  3.495  -0.939   0.392  -0.282  -0.111  -0.143   0.098   0.041
 -0.939   0.273  -0.129   0.087   0.038   0.048  -0.031  -0.015
  0.392  -0.129   2.968   0.096  -0.124  -0.817   0.005   0.063
 -0.282   0.087   0.096   3.152   0.107   0.005  -0.838  -0.039
 -0.111   0.038  -0.124   0.107   3.605   0.062  -0.038  -0.978
 -0.143   0.048  -0.817   0.005   0.062   0.232  -0.009  -0.025
  0.098  -0.031   0.005  -0.838  -0.038  -0.009   0.230   0.014
  0.041  -0.015   0.063  -0.039  -0.978  -0.025   0.014   0.274


------------------------ aborting loop because EDIFF is reached ----------------------------------------


    CHARGE:  cpu time    0.86: real time    0.86
    FORLOC:  cpu time    0.02: real time    0.02
    FORNL :  cpu time    7.07: real time    7.08
    STRESS:  cpu time   23.02: real time   23.04
    FORCOR:  cpu time    0.10: real time    0.10
    FORHAR:  cpu time    0.04: real time    0.04
    MIXING:  cpu time    0.00: real time    0.00

  FORCE on cell =-STRESS in cart. coord.  units (eV):
  Direction    XX          YY          ZZ          XY          YZ          ZX
  --------------------------------------------------------------------------------------
  Alpha Z   477.55380   477.55380   477.55380
  Ewald   -1267.63018 -1521.09544 -1523.12300     0.00000     0.00000     0.00000
  Hartree   198.98210   131.77013   171.96479    -0.00000    -0.00000    -0.00000
  E(xc)    -507.52258  -507.62839  -508.18905    -0.00000     0.00000     0.00000
  Local    -575.29679  -252.23982  -308.50155     0.00000    -0.00000    -0.00000
  n-local   -49.82364   -46.20003   -48.51272     0.15645    -0.20223    -0.17857
  augment     4.78223     5.04977     4.87131    -0.00001    -0.00001    -0.00001
  Kinetic  1718.99995  1712.82085  1733.95681    -1.46060     1.24024     0.48410
  Fock        0.00000     0.00000     0.00000     0.00000     0.00000     0.00000
  -------------------------------------------------------------------------------------
  Total       0.04489     0.03087     0.02038     0.00000     0.00000     0.00000
  in kB       0.18465     0.12697     0.08383     0.00000     0.00000     0.00000
  external pressure =        0.13 kB  Pullay stress =        0.00 kB


 VOLUME and BASIS-vectors are now :
 -----------------------------------------------------------------------------
  energy-cutoff  :      318.61
  volume of cell :      389.53
      direct lattice vectors                 reciprocal lattice vectors
     8.745221382  0.000000000  0.000000000     0.114348163  0.000000000  0.000000000
     0.000000000  8.885782440  0.000000000     0.000000000  0.112539330  0.000000000
     0.000000000  0.000000000  5.012742402     0.000000000  0.000000000  0.199491600

  length of vectors
     8.745221382  8.885782440  5.012742402     0.114348163  0.112539330  0.199491600


 FORCES acting on ions
    electron-ion (+dipol)            ewald-force                    non-local-force                 convergence-correction
 -----------------------------------------------------------------------------------------------
   -.206E+02 0.395E+02 -.180E+02   0.203E+02 -.384E+02 0.170E+02   0.294E+00 -.112E+01 0.100E+01   0.316E-03 -.311E-05 -.278E-04
   0.206E+02 -.395E+02 0.180E+02   -.203E+02 0.384E+02 -.170E+02   -.294E+00 0.112E+01 -.100E+01   -.316E-03 0.311E-05 0.278E-04
   -.376E+02 -.327E+02 -.170E+02   0.412E+02 0.332E+02 0.201E+02   -.358E+01 -.574E+00 -.310E+01   -.400E-03 -.683E-04 -.343E-03
   0.206E+02 -.395E+02 -.180E+02   -.203E+02 0.384E+02 0.170E+02   -.294E+00 0.112E+01 0.100E+01   -.316E-03 0.311E-05 -.278E-04
   0.376E+02 0.327E+02 -.170E+02   -.412E+02 -.332E+02 0.201E+02   0.358E+01 0.574E+00 -.310E+01   0.400E-03 0.683E-04 -.343E-03
   0.376E+02 0.327E+02 0.170E+02   -.412E+02 -.332E+02 -.201E+02   0.358E+01 0.574E+00 0.310E+01   0.400E-03 0.683E-04 0.343E-03
   -.376E+02 -.327E+02 0.170E+02   0.412E+02 0.332E+02 -.201E+02   -.358E+01 -.574E+00 0.310E+01   -.400E-03 -.683E-04 0.343E-03
   -.206E+02 -.395E+02 0.180E+02   0.203E+02 0.384E+02 -.170E+02   0.294E+00 0.112E+01 -.100E+01   0.316E-03 0.311E-05 0.278E-04
   0.206E+02 0.395E+02 0.180E+02   -.203E+02 -.384E+02 -.170E+02   -.294E+00 -.112E+01 -.100E+01   -.316E-03 -.311E-05 0.278E-04
   0.376E+02 -.327E+02 0.170E+02   -.412E+02 0.332E+02 -.201E+02   0.358E+01 -.574E+00 0.310E+01   0.400E-03 -.683E-04 0.343E-03
   -.376E+02 0.327E+02 0.170E+02   0.412E+02 -.332E+02 -.201E+02   -.358E+01 0.574E+00 0.310E+01   -.400E-03 0.683E-04 0.343E-03
   -.206E+02 0.395E+02 0.180E+02   0.203E+02 -.384E+02 -.170E+02   0.294E+00 -.112E+01 -.100E+01   0.316E-03 -.311E-05 0.278E-04
   0.206E+02 0.395E+02 -.180E+02   -.203E+02 -.384E+02 0.170E+02   -.294E+00 -.112E+01 0.100E+01   -.316E-03 -.311E-05 -.278E-04
   -.206E+02 -.395E+02 -.180E+02   0.203E+02 0.384E+02 0.170E+02   0.294E+00 0.112E+01 0.100E+01   0.316E-03 0.311E-05 -.278E-04
   -.376E+02 0.327E+02 -.170E+02   0.412E+02 -.332E+02 0.201E+02   -.358E+01 0.574E+00 -.310E+01   -.400E-03 0.683E-04 -.343E-03
   0.376E+02 -.327E+02 -.170E+02   -.412E+02 0.332E+02 0.201E+02   0.358E+01 -.574E+00 -.310E+01   0.400E-03 -.683E-04 -.343E-03
   0.883E+01 0.414E+02 0.186E+02   -.915E+01 -.456E+02 -.217E+02   0.313E+00 0.414E+01 0.306E+01   -.130E-03 0.146E-03 -.152E-03
   -.883E+01 -.414E+02 -.186E+02   0.915E+01 0.456E+02 0.217E+02   -.313E+00 -.414E+01 -.306E+01   0.130E-03 -.146E-03 0.152E-03
   -.373E+02 0.211E+02 0.159E+02   0.417E+02 -.224E+02 -.187E+02   -.440E+01 0.132E+01 0.280E+01   -.404E-03 0.233E-03 0.205E-03
   -.883E+01 -.414E+02 0.186E+02   0.915E+01 0.456E+02 -.217E+02   -.313E+00 -.414E+01 0.306E+01   0.130E-03 -.146E-03 -.152E-03
   0.373E+02 -.211E+02 0.159E+02   -.417E+02 0.224E+02 -.187E+02   0.440E+01 -.132E+01 0.280E+01   0.404E-03 -.233E-03 0.205E-03
   0.373E+02 -.211E+02 -.159E+02   -.417E+02 0.224E+02 0.187E+02   0.440E+01 -.132E+01 -.280E+01   0.404E-03 -.233E-03 -.205E-03
   -.373E+02 0.211E+02 -.159E+02   0.417E+02 -.224E+02 0.187E+02   -.440E+01 0.132E+01 -.280E+01   -.404E-03 0.233E-03 -.205E-03
   0.883E+01 -.414E+02 -.186E+02   -.915E+01 0.456E+02 0.217E+02   0.313E+00 -.414E+01 -.306E+01   -.130E-03 -.146E-03 0.152E-03
   -.883E+01 0.414E+02 -.186E+02   0.915E+01 -.456E+02 0.217E+02   -.313E+00 0.414E+01 -.306E+01   0.130E-03 0.146E-03 0.152E-03
   0.373E+02 0.211E+02 -.159E+02   -.417E+02 -.224E+02 0.187E+02   0.440E+01 0.132E+01 -.280E+01   0.404E-03 0.233E-03 -.205E-03
   -.373E+02 -.211E+02 -.159E+02   0.417E+02 0.224E+02 0.187E+02   -.440E+01 -.132E+01 -.280E+01   -.404E-03 -.233E-03 -.205E-03
   0.883E+01 0.414E+02 -.186E+02   -.915E+01 -.456E+02 0.217E+02   0.313E+00 0.414E+01 -.306E+01   -.130E-03 0.146E-03 0.152E-03
   -.883E+01 0.414E+02 0.186E+02   0.915E+01 -.456E+02 -.217E+02   -.313E+00 0.414E+01 0.306E+01   0.130E-03 0.146E-03 -.152E-03
   0.883E+01 -.414E+02 0.186E+02   -.915E+01 0.456E+02 -.217E+02   0.313E+00 -.414E+01 0.306E+01   -.130E-03 -.146E-03 -.152E-03
   -.373E+02 -.211E+02 0.159E+02   0.417E+02 0.224E+02 -.187E+02   -.440E+01 -.132E+01 0.280E+01   -.404E-03 -.233E-03 0.205E-03
   0.373E+02 0.211E+02 0.159E+02   -.417E+02 -.224E+02 -.187E+02   0.440E+01 0.132E+01 0.280E+01   0.404E-03 0.233E-03 0.205E-03
   0.268E+02 0.332E+02 -.166E+02   -.292E+02 -.341E+02 0.171E+02   0.231E+01 0.890E+00 -.514E+00   -.213E-03 0.198E-03 -.405E-04
   -.268E+02 -.332E+02 0.166E+02   0.292E+02 0.341E+02 -.171E+02   -.231E+01 -.890E+00 0.514E+00   0.213E-03 -.198E-03 0.405E-04
   -.268E+02 0.332E+02 -.166E+02   0.292E+02 -.341E+02 0.171E+02   -.231E+01 0.890E+00 -.514E+00   0.213E-03 0.198E-03 -.405E-04
   -.268E+02 -.332E+02 -.166E+02   0.292E+02 0.341E+02 0.171E+02   -.231E+01 -.890E+00 -.514E+00   0.213E-03 -.198E-03 -.405E-04
   0.268E+02 -.332E+02 -.166E+02   -.292E+02 0.341E+02 0.171E+02   0.231E+01 -.890E+00 -.514E+00   -.213E-03 -.198E-03 -.405E-04
   0.268E+02 -.332E+02 0.166E+02   -.292E+02 0.341E+02 -.171E+02   0.231E+01 -.890E+00 0.514E+00   -.213E-03 -.198E-03 0.405E-04
   -.268E+02 0.332E+02 0.166E+02   0.292E+02 -.341E+02 -.171E+02   -.231E+01 0.890E+00 0.514E+00   0.213E-03 0.198E-03 0.405E-04
   0.268E+02 0.332E+02 0.166E+02   -.292E+02 -.341E+02 -.171E+02   0.231E+01 0.890E+00 0.514E+00   -.213E-03 0.198E-03 0.405E-04
   0.155E+01 0.135E+01 -.393E+02   -.146E+01 -.892E+00 0.444E+02   -.897E-01 -.456E+00 -.512E+01   0.538E-04 0.146E-03 -.367E-03
   -.155E+01 -.135E+01 0.393E+02   0.146E+01 0.892E+00 -.444E+02   0.897E-01 0.456E+00 0.512E+01   -.538E-04 -.146E-03 0.367E-03
   -.155E+01 0.135E+01 -.393E+02   0.146E+01 -.892E+00 0.444E+02   0.897E-01 -.456E+00 -.512E+01   -.538E-04 0.146E-03 -.367E-03
   -.155E+01 -.135E+01 -.393E+02   0.146E+01 0.892E+00 0.444E+02   0.897E-01 0.456E+00 -.512E+01   -.538E-04 -.146E-03 -.367E-03
   0.155E+01 -.135E+01 -.393E+02   -.146E+01 0.892E+00 0.444E+02   -.897E-01 0.456E+00 -.512E+01   0.538E-04 -.146E-03 -.367E-03
   0.155E+01 -.135E+01 0.393E+02   -.146E+01 0.892E+00 -.444E+02   -.897E-01 0.456E+00 0.512E+01   0.538E-04 -.146E-03 0.367E-03
   -.155E+01 0.135E+01 0.393E+02   0.146E+01 -.892E+00 -.444E+02   0.897E-01 -.456E+00 0.512E+01   -.538E-04 0.146E-03 0.367E-03
   0.155E+01 0.135E+01 0.393E+02   -.146E+01 -.892E+00 -.444E+02   -.897E-01 -.456E+00 0.512E+01   0.538E-04 0.146E-03 0.367E-03
   0.265E-13 0.864E-16 0.948E-14   -.146E-13 0.203E-15 0.950E-13   0.000E+00 0.000E+00 0.000E+00   0.178E-12 -.826E-13 -.382E-12
   -.141E-13 -.430E-12 -.144E-12   -.166E-13 0.739E-14 -.246E-12   0.000E+00 0.000E+00 0.000E+00   0.149E-12 -.157E-12 0.353E-12
   0.203E-13 0.792E-14 -.130E-15   -.432E-13 -.892E-14 -.184E-11   0.000E+00 0.000E+00 0.000E+00   -.282E-12 0.970E-13 0.316E-12
   -.191E-13 0.484E-14 -.214E-12   -.360E-14 0.554E-14 0.383E-13   0.000E+00 0.000E+00 0.000E+00   0.205E-13 0.129E-12 -.156E-12
 -----------------------------------------------------------------------------------------------
   -.397E-12 -.374E-12 0.417E-11   -.646E-13 0.362E-13 -.225E-12   0.135E-14 -.167E-15 -.266E-14   -.324E-13 0.346E-12 -.107E-11
 
 
 POSITION                                       TOTAL-FORCE (eV/Angst)
 -----------------------------------------------------------------------------------
      2.93477      0.88663      1.96611         0.001655      0.000962     -0.000132
      1.43784      3.55626      0.54026        -0.001655     -0.000962      0.000132
      3.64152      7.29242      4.55092        -0.000885     -0.002388     -0.000428
      5.81045      7.99915      1.96611        -0.001655     -0.000962     -0.000132
      5.10370      1.59337      4.55092         0.000885      0.002388     -0.000428
      0.73109      6.03626      2.96820         0.000885      0.002388      0.000428
      8.01413      2.84953      2.96820        -0.000885     -0.002388      0.000428
      2.93477      7.99915      3.04664         0.001655     -0.000962      0.000132
      5.81045      0.88663      3.04664        -0.001655      0.000962      0.000132
      5.10370      7.29242      0.46183         0.000885     -0.002388      0.000428
      3.64152      1.59337      0.46183        -0.000885      0.002388      0.000428
      7.30738      5.32953      0.54026         0.001655      0.000962      0.000132
      1.43784      5.32953      4.47248        -0.001655      0.000962     -0.000132
      7.30738      3.55626      4.47248         0.001655     -0.000962     -0.000132
      8.01413      6.03626      2.04454        -0.000885      0.002388     -0.000428
      0.73109      2.84953      2.04454         0.000885     -0.002388     -0.000428
      2.06482      0.70852      0.44233         0.000483      0.000155     -0.001306
      2.30779      3.73438      2.06404        -0.000483     -0.000155      0.001306
      3.66523      6.32507      2.95495        -0.000939      0.000045      0.000825
      6.68040      8.17727      0.44233        -0.000483     -0.000155     -0.001306
      5.07999      2.56072      2.95495         0.000939     -0.000045      0.000825
      0.70738      7.00361      4.56417         0.000939     -0.000045     -0.000825
      8.03784      1.88218      4.56417        -0.000939      0.000045     -0.000825
      2.06482      8.17727      4.57041         0.000483     -0.000155      0.001306
      6.68040      0.70852      4.57041        -0.000483      0.000155      0.001306
      5.07999      6.32507      2.05780         0.000939      0.000045     -0.000825
      3.66523      2.56072      2.05780        -0.000939     -0.000045     -0.000825
      6.43743      5.15141      2.06404         0.000483      0.000155      0.001306
      2.30779      5.15141      2.94870        -0.000483      0.000155     -0.001306
      6.43743      3.73438      2.94870         0.000483     -0.000155     -0.001306
      8.03784      7.00361      0.44857        -0.000939     -0.000045      0.000825
      0.70738      1.88218      0.44857         0.000939      0.000045      0.000825
      1.17842      1.10053      1.96471        -0.000327     -0.001160     -0.000270
      3.19419      3.34236      0.54166         0.000327      0.001160      0.000270
      3.19419      5.54343      4.47108         0.000327     -0.001160     -0.000270
      7.56680      7.78525      1.96471         0.000327      0.001160     -0.000270
      5.55104      3.34236      4.47108        -0.000327      0.001160     -0.000270
      1.17842      7.78525      3.04804        -0.000327      0.001160      0.000270
      7.56680      1.10053      3.04804         0.000327     -0.001160      0.000270
      5.55104      5.54343      0.54166        -0.000327     -0.001160      0.000270
      2.17913      2.21887      2.92663        -0.000468     -0.000084     -0.000092
      2.19348      2.22402      4.59248         0.000468      0.000084      0.000092
      2.19348      6.66177      0.42026         0.000468     -0.000084     -0.000092
      6.56609      6.66691      2.92663         0.000468      0.000084     -0.000092
      6.55174      2.22402      0.42026        -0.000468      0.000084     -0.000092
      2.17913      6.66691      2.08611        -0.000468      0.000084      0.000092
      6.56609      2.21887      2.08611         0.000468     -0.000084      0.000092
      6.55174      6.66177      4.59248        -0.000468     -0.000084      0.000092
      0.00000      0.00000      2.50637         0.000000      0.000000      0.000000
      4.37261      4.44289      0.00000         0.000000      0.000000      0.000000
      0.00000      4.44289      0.00000         0.000000      0.000000      0.000000
      4.37261      0.00000      2.50637         0.000000      0.000000      0.000000
 -----------------------------------------------------------------------------------
    total drift:                               -0.000000      0.000000      0.000000


--------------------------------------------------------------------------------------------------------



  FREE ENERGIE OF THE ION-ELECTRON SYSTEM (eV)
  ---------------------------------------------------
  free  energy   TOTEN  =      -346.440472 eV

  energy  without entropy=     -346.453659  energy(sigma->0) =     -346.444868
 
 d Force = 0.3332366E-05[ 0.143E-05, 0.524E-05]  d Energy = 0.2794672E-05 0.538E-06
 d Force = 0.3778917E-02[ 0.378E-02, 0.378E-02]  d Ewald  = 0.7037321E-01-0.666E-01


--------------------------------------------------------------------------------------------------------


    POTLOK:  cpu time    0.10: real time    0.10


--------------------------------------------------------------------------------------------------------




--------------------------------------------------------------------------------------------------------


  
 reached required accuracy - stopping structural energy minimisation
     LOOP+:  cpu time   74.12: real time   74.21
    4ORBIT:  cpu time    0.00: real time    0.00

 total amount of memory used by VASP on root node   129174. kBytes
========================================================================

   base      :      30000. kBytes
   nonlr-proj:       5716. kBytes
   fftplans  :       2849. kBytes
   grid      :       5350. kBytes
   one-center:        159. kBytes
   wavefun   :      85100. kBytes
 
  
  
 General timing and accounting informations for this job:
 ========================================================
  
                  Total CPU time used (sec):      834.842
                            User time (sec):      830.934
                          System time (sec):        3.908
                         Elapsed time (sec):      836.385
  
                   Maximum memory used (kb):      316648.
                   Average memory used (kb):           0.
  
                          Minor page faults:        85394
                          Major page faults:            5
                 Voluntary context switches:         1496
