 vasp.5.2.12 11Nov11 complex                                                    
  
 executed on             LinuxIFC date 2014.10.17  09:55:26
 running on    4 nodes
 distr:  one band on    2 nodes,    2 groups


--------------------------------------------------------------------------------------------------------


 INCAR:
 POTCAR:    PAW_PBE B 06Sep2000                   
 POTCAR:    PAW_PBE B 06Sep2000                   
   VRHFIN =B: s2p1                                                              
   LEXCH  = PE                                                                  
   EATOM  =    71.1703 eV,    5.2309 Ry                                         
                                                                                
   TITEL  = PAW_PBE B 06Sep2000                                                 
   LULTRA =        F    use ultrasoft PP ?                                      
   IUNSCR =        1    unscreen: 0-lin 1-nonlin 2-no                           
   RPACOR =    1.200    partial core radius                                     
   POMASS =   10.811; ZVAL   =    3.000    mass and valenz                      
   RCORE  =    1.700    outmost cutoff radius                                   
   RWIGS  =    1.710; RWIGS  =    0.905    wigner-seitz radius (au A)           
   ENMAX  =  318.614; ENMIN  =  238.960 eV                                      
   ICORE  =        2    local potential                                         
   LCOR   =        T    correct aug charges                                     
   LPAW   =        T    paw PP                                                  
   EAUG   =  535.514                                                            
   DEXC   =    0.000                                                            
   RMAX   =    1.732    core radius for proj-oper                               
   RAUG   =    1.300    factor for augmentation sphere                          
   RDEP   =    1.757    radius for radial grids                                 
   RDEPT  =    1.436    core radius for aug-charge                              
                                                                                
   Atomic configuration                                                         
    4 entries                                                                   
     n  l   j            E        occ.                                          
     1  0  0.50      -180.5896   2.0000                                         
     2  0  0.50        -9.4431   2.0000                                         
     2  1  0.50        -3.6068   1.0000                                         
     3  2  1.50        -4.0817   0.0000                                         
   Description                                                                  
     l       E           TYP  RCUT    TYP  RCUT                                 
     0     -9.4430752     23  1.500                                             
     0      0.8675899     23  1.500                                             
     1     -3.6067955     23  1.700                                             
     1      6.1086146     23  1.700                                             
     2     -4.0817478      7  1.700                                             
  local pseudopotential read in
  partial core-charges read in
  partial kinetic energy density read in
  atomic valenz-charges read in
  non local Contribution for L=           0  read in
    real space projection operators read in
  non local Contribution for L=           0  read in
    real space projection operators read in
  non local Contribution for L=           1  read in
    real space projection operators read in
  non local Contribution for L=           1  read in
    real space projection operators read in
    PAW grid and wavefunctions read in
 
   number of l-projection  operators is LMAX  =           4
   number of lm-projection operators is LMMAX =           8
 
 Optimization of the real space projectors (new method)

 maximal supplied QI-value         = 22.11
 optimisation between [QCUT,QGAM] = [  9.07, 18.13] = [ 23.01, 92.04] Ry 
 Optimized for a Real-space Cutoff    1.46 Angstroem

   l    n(q)    QCUT    max X(q) W(low)/X(q) W(high)/X(q)  e(spline) 
   0      8     9.065    53.033    0.38E-03    0.70E-03    0.20E-06
   0      8     9.065    34.740    0.38E-03    0.69E-03    0.20E-06
   1      7     9.065    30.949    0.34E-03    0.21E-03    0.23E-06
   1      7     9.065    19.518    0.31E-03    0.17E-03    0.22E-06
  PAW_PBE B 06Sep2000                   :
 energy of atom  1       EATOM=  -71.1703
 kinetic energy error for atom=    0.0071 (will be added to EATOM!!)
 
 
 POSCAR: XYZ: B192Vac4                           
  positions in direct lattice
  velocities in cartesian coordinates
 exchange correlation table for  LEXCH =        8
   RHO(1)=    0.500       N(1)  =     2000
   RHO(2)=  100.500       N(2)  =     4000
 


--------------------------------------------------------------------------------------------------------


 ion  position               nearest neighbor table
   1  0.874  0.734  0.131-  41 1.72  96 1.79  17 1.79 191 1.80  25 1.81   9 1.84  33 1.84
   2  0.264  0.872  0.882-  42 1.72  93 1.73  18 1.78  26 1.82  34 1.83  10 1.85 192 1.96
   3  0.128  0.256  0.629-  43 1.74  94 1.75  35 1.77  19 1.79 189 1.79  27 1.83  11 1.86
   4  0.742  0.124  0.373- 190 1.69  44 1.72  36 1.76  95 1.77  20 1.82  28 1.84  12 1.87
   5  0.242  0.371  0.871-  90 1.70  45 1.76  37 1.78  29 1.80  21 1.81  13 1.82
   6  0.629  0.245  0.622-  91 1.71  46 1.76  38 1.78  30 1.80  14 1.83  22 1.85
   7  0.765  0.629  0.372-  92 1.70  47 1.72  23 1.80  31 1.81  39 1.81  15 1.87
   8  0.372  0.767  0.116-  89 1.74  48 1.74  24 1.79  16 1.82  32 1.82  40 1.84 192 2.05
   9  0.969  0.626  0.211-  15 1.72  65 1.77  49 1.80  33 1.82   1 1.84  17 1.88
  10  0.374  0.969  0.960-  16 1.71  66 1.78  34 1.80  50 1.81   2 1.85  18 1.89
  11  0.039  0.372  0.708-  13 1.74  67 1.79  51 1.82   3 1.86  19 1.88  35 1.88
  12  0.629  0.040  0.459-  14 1.74  68 1.77  52 1.81  20 1.87   4 1.87  36 1.91
  13  0.134  0.460  0.789-  11 1.74  69 1.78  53 1.79   5 1.82  21 1.83  37 1.89
  14  0.542  0.135  0.540-  12 1.74  70 1.80  54 1.81  22 1.81   6 1.83  38 1.90
  15  0.874  0.535  0.289-   9 1.72  71 1.78  39 1.81  55 1.82  23 1.83   7 1.87
  16  0.467  0.874  0.036-  10 1.71  72 1.76  56 1.80  40 1.81   8 1.82  24 1.88
  17  0.958  0.811  0.228-  84 1.70  49 1.77   1 1.79  25 1.80  57 1.81   9 1.88
  18  0.190  0.957  0.979-  81 1.73   2 1.78  26 1.80  50 1.81  58 1.82  10 1.89 192 2.00
  19  0.042  0.189  0.729-  82 1.75   3 1.79  27 1.80  59 1.80  51 1.81  11 1.88 189 1.89
  20  0.811  0.041  0.476- 190 1.75  83 1.77  52 1.77  60 1.79   4 1.82  28 1.83  12 1.87
  21  0.312  0.458  0.770-  86 1.69  53 1.77  29 1.78  61 1.80   5 1.81  13 1.83
  22  0.541  0.312  0.518-  87 1.70  30 1.78  54 1.80  62 1.80  14 1.81   6 1.85
  23  0.696  0.549  0.269-  88 1.75  31 1.80   7 1.80  15 1.83  55 1.84  63 1.86 191 2.05
  24  0.457  0.690  0.019-  85 1.70  56 1.78   8 1.79  32 1.80  64 1.81  16 1.88
  25  0.959  0.890  0.113- 127 1.66  81 1.72  41 1.77  17 1.80   1 1.81  57 1.83
  26  0.106  0.957  0.867- 128 1.69  82 1.75  42 1.76  18 1.80   2 1.82  58 1.87
  27  0.036  0.100  0.619- 125 1.66  43 1.73  83 1.74  19 1.80   3 1.83  59 1.83
  28  0.898  0.033  0.363- 126 1.65  84 1.72  44 1.74  60 1.80  20 1.83   4 1.84
  29  0.393  0.462  0.882- 123 1.66  85 1.74  45 1.74  21 1.78   5 1.80  61 1.81
  30  0.538  0.397  0.628- 124 1.66  46 1.74  86 1.76  22 1.78   6 1.80  62 1.82
  31  0.609  0.544  0.380- 121 1.69  87 1.75  47 1.76  23 1.80   7 1.81  63 1.85
  32  0.460  0.612  0.134- 122 1.66  88 1.72  48 1.77  24 1.80  64 1.82   8 1.82
  33  0.976  0.599  0.084-  73 1.72 175 1.76  65 1.82   9 1.82  41 1.83   1 1.84
  34  0.396  0.975  0.833-  74 1.72 176 1.77  10 1.80   2 1.83  66 1.83  42 1.83
  35  0.036  0.386  0.575-  75 1.75   3 1.77  43 1.84  11 1.88  67 1.89 173 1.93 185 1.97
  36  0.610  0.033  0.324-   4 1.76  76 1.78  44 1.84  68 1.84  12 1.91 174 1.92 186 2.08
  37  0.112  0.465  0.923-  77 1.75   5 1.78  45 1.80  69 1.84  13 1.89 175 1.94 187 2.00
  38  0.534  0.116  0.675-  78 1.74   6 1.78  46 1.83  70 1.84  14 1.90 176 1.93 188 1.94
  39  0.896  0.523  0.417-  79 1.73 173 1.76  71 1.80   7 1.81  15 1.81  47 1.86
  40  0.475  0.902  0.163-  80 1.71 174 1.76  72 1.80  16 1.81  48 1.82   8 1.84
  41  0.960  0.762  0.028- 112 1.67   1 1.72  73 1.76  25 1.77  33 1.83  81 1.87
  42  0.231  0.959  0.780- 109 1.68   2 1.72  26 1.76  74 1.78  34 1.83  82 1.86
  43  0.038  0.216  0.527- 110 1.69  27 1.73   3 1.74  75 1.80  83 1.83  35 1.84
  44  0.778  0.030  0.275- 111 1.67   4 1.72  28 1.74  76 1.75  84 1.81  36 1.84
  45  0.276  0.466  0.972- 106 1.66  29 1.74  77 1.74   5 1.76  85 1.80  37 1.80
  46  0.533  0.284  0.722- 107 1.69  30 1.74   6 1.76  78 1.76  86 1.79  38 1.83
  47  0.728  0.534  0.471- 108 1.68   7 1.72  79 1.75  31 1.76  87 1.82  39 1.86
  48  0.461  0.739  0.219- 105 1.68   8 1.74  80 1.75  32 1.77  40 1.82  88 1.86
  49  0.108  0.725  0.245- 113 1.68  65 1.77  17 1.77   9 1.80  89 1.81  57 1.86
  50  0.279  0.111  0.998- 114 1.71  66 1.78  90 1.80  10 1.81  18 1.81  58 1.89
  51  0.892  0.283  0.746- 115 1.72  67 1.79  91 1.80  19 1.81  11 1.82  59 1.90
  52  0.720  0.894  0.494- 116 1.69  20 1.77  68 1.78  92 1.80  12 1.81  60 1.89
  53  0.222  0.606  0.754- 117 1.69  21 1.77  13 1.79  69 1.79  93 1.82  61 1.85
  54  0.392  0.218  0.503- 118 1.72  70 1.80  22 1.80  14 1.81  94 1.82  62 1.88
  55  0.782  0.390  0.251- 119 1.71  71 1.78  95 1.81  15 1.82  23 1.84  63 1.90
  56  0.607  0.777  0.001- 120 1.68  96 1.78  72 1.78  24 1.78  16 1.80  64 1.86
  57  0.108  0.890  0.187- 158 1.74  89 1.78  81 1.79  17 1.81  25 1.83  49 1.86
  58  0.111  0.110  0.941-  90 1.79 159 1.79  82 1.81  18 1.82  26 1.87  50 1.89
  59  0.890  0.109  0.695- 160 1.80  19 1.80  91 1.83  83 1.83  27 1.83  51 1.90
  60  0.891  0.891  0.441- 157 1.79  20 1.79  28 1.80  92 1.81  84 1.82  52 1.89
  61  0.388  0.609  0.808- 156 1.80  21 1.80  29 1.81  85 1.81  93 1.81  53 1.85
  62  0.390  0.389  0.556-  22 1.80  94 1.81  30 1.82  86 1.82 153 1.83  54 1.88
  63  0.612  0.393  0.307-  95 1.79 154 1.80  87 1.81  31 1.85  23 1.86  55 1.90
  64  0.607  0.611  0.060- 155 1.74  96 1.77  88 1.80  24 1.81  32 1.82  56 1.86
  65  0.124  0.602  0.157- 130 1.68  73 1.75   9 1.77  49 1.77  89 1.80  33 1.82
  66  0.398  0.125  0.905- 131 1.71  74 1.75  10 1.78  90 1.78  50 1.78  34 1.83
  67  0.884  0.402  0.651- 132 1.71  75 1.76  51 1.79  11 1.79  91 1.83  35 1.89
  68  0.599  0.886  0.402- 129 1.69  12 1.77  52 1.78  76 1.79  36 1.84  92 1.85
  69  0.099  0.613  0.846- 136 1.69  77 1.78  13 1.78  53 1.79  37 1.84  93 1.84
  70  0.388  0.098  0.598- 133 1.71  78 1.80  54 1.80  14 1.80  94 1.83  38 1.84
  71  0.901  0.378  0.343- 134 1.71  55 1.78  15 1.78  79 1.80  39 1.80  95 1.80
  72  0.621  0.901  0.090- 135 1.67  80 1.76  16 1.76  56 1.78  96 1.80  40 1.80
  73  0.113  0.686  0.047-  77 1.70  33 1.72 192 1.74  89 1.75  65 1.75  81 1.76  41 1.76
  74  0.311  0.114  0.798-  78 1.71  34 1.72 189 1.72  82 1.74  66 1.75  90 1.76  42 1.78
  75  0.888  0.307  0.546-  79 1.72 190 1.73  83 1.73  35 1.75  67 1.76  91 1.77  43 1.80
  76  0.692  0.883  0.295-  80 1.70  84 1.74  44 1.75  92 1.75  36 1.78  68 1.79 191 1.91
  77  0.190  0.613  0.954-  73 1.70  93 1.73  45 1.74  37 1.75  85 1.77  69 1.78 192 1.82
  78  0.387  0.193  0.705-  74 1.71  94 1.72  38 1.74 189 1.76  46 1.76  86 1.77  70 1.80
  79  0.809  0.383  0.452- 190 1.72  75 1.72  95 1.72  39 1.73  47 1.75  87 1.79  71 1.80
  80  0.612  0.818  0.199-  76 1.70 191 1.70  40 1.71  48 1.75  72 1.76  88 1.77  96 1.77
  81  0.109  0.859  0.062-  25 1.72  18 1.73  73 1.76  89 1.76  57 1.79  41 1.87 192 1.88
  82  0.140  0.111  0.815-  74 1.74  19 1.75  26 1.75  90 1.78  58 1.81 189 1.86  42 1.86
  83  0.885  0.138  0.567-  75 1.73  27 1.74  20 1.77  91 1.78  59 1.83  43 1.83 190 1.83
  84  0.862  0.881  0.313-  17 1.70  28 1.72  76 1.74  92 1.77  44 1.81  60 1.82
  85  0.362  0.614  0.935-  24 1.70  29 1.74  93 1.76  77 1.77  45 1.80  61 1.81 192 2.17
  86  0.386  0.367  0.684-  21 1.69  30 1.76  78 1.77  94 1.77  46 1.79  62 1.82
  87  0.635  0.389  0.434-  22 1.70  31 1.75  79 1.79  95 1.80  63 1.81  47 1.82
  88  0.610  0.644  0.185-  32 1.72  23 1.75  80 1.77  96 1.77  64 1.80 191 1.80  48 1.86
  89  0.204  0.759  0.139-   8 1.74  73 1.75  81 1.76  57 1.78  65 1.80  49 1.81 192 2.00
  90  0.243  0.205  0.892-   5 1.70  74 1.76  66 1.78  82 1.78  58 1.79  50 1.80
  91  0.795  0.245  0.643-   6 1.71  75 1.77  83 1.78  51 1.80  59 1.83  67 1.83
  92  0.757  0.795  0.392-   7 1.70  76 1.75  84 1.77  52 1.80  60 1.81  68 1.85
  93  0.255  0.703  0.860-  77 1.73   2 1.73  85 1.76  61 1.81  53 1.82  69 1.84 192 2.09
  94  0.298  0.254  0.611-  78 1.72   3 1.75  86 1.77  62 1.81  54 1.82  70 1.83 189 1.92
  95  0.743  0.298  0.358-  79 1.72   4 1.77  63 1.79  87 1.80  71 1.80  55 1.81 190 1.82
  96  0.702  0.744  0.105-  88 1.77  80 1.77 191 1.77  64 1.77  56 1.78   1 1.79  72 1.80
  97  0.317  0.568  0.360- 162 1.69 121 1.76 105 1.78 137 1.79 113 1.80 153 1.89
  98  0.444  0.319  0.114- 163 1.68 106 1.71 122 1.75 114 1.80 138 1.82 154 1.90
  99  0.694  0.460  0.874- 139 1.72 164 1.76 107 1.80 123 1.82 155 1.83 115 1.85 184 2.15
 100  0.552  0.695  0.617- 161 1.74 140 1.74 124 1.79 116 1.82 156 1.84 108 1.87
 101  0.054  0.805  0.632- 141 1.74 168 1.74 125 1.79 117 1.82 157 1.84 109 1.85
 102  0.196  0.040  0.374- 142 1.72 165 1.76 110 1.80 126 1.82 158 1.84 118 1.85 177 2.15
 103  0.944  0.181  0.134- 166 1.68 111 1.72 127 1.76 119 1.80 143 1.80 159 1.90
 104  0.817  0.933  0.888- 167 1.69 128 1.77 112 1.78 144 1.79 120 1.80 160 1.88
 105  0.383  0.725  0.324-  48 1.68 129 1.76  97 1.78 121 1.79 177 1.80 113 1.83
 106  0.301  0.394  0.077-  45 1.66 178 1.71  98 1.71 122 1.72 130 1.79 114 1.84
 107  0.612  0.317  0.825-  46 1.69 123 1.72 179 1.73  99 1.80 131 1.84 115 1.87
 108  0.708  0.620  0.572-  47 1.68 180 1.74 132 1.78 124 1.78 100 1.87 116 1.87
 109  0.209  0.878  0.677-  42 1.68 181 1.75 125 1.78 133 1.78 117 1.85 101 1.85
 110  0.115  0.183  0.423-  43 1.69 182 1.72 126 1.73 102 1.80 134 1.84 118 1.86
 111  0.800  0.107  0.170-  44 1.67 183 1.71 127 1.71 103 1.72 135 1.78 119 1.85
 112  0.882  0.777  0.924-  41 1.67 136 1.76 104 1.78 128 1.78 184 1.80 120 1.83
 113  0.205  0.704  0.342-  49 1.68 149 1.74 177 1.78  97 1.80 137 1.82 105 1.83
 114  0.305  0.213  0.092-  50 1.71 150 1.75 178 1.77 138 1.77  98 1.80 106 1.84
 115  0.795  0.314  0.843-  51 1.72 151 1.73 179 1.79 139 1.84  99 1.85 107 1.87
 116  0.693  0.802  0.593-  52 1.69 152 1.73 180 1.77 100 1.82 108 1.87 140 1.87
 117  0.194  0.698  0.655-  53 1.69 145 1.73 181 1.77 101 1.82 109 1.85 141 1.87
 118  0.296  0.187  0.405-  54 1.72 146 1.74 182 1.79 102 1.85 142 1.85 110 1.86
 119  0.806  0.289  0.156-  55 1.71 147 1.75 183 1.78 143 1.78 103 1.80 111 1.85
 120  0.704  0.797  0.905-  56 1.68 148 1.73 184 1.77 104 1.80 144 1.82 112 1.83
 121  0.467  0.623  0.409-  31 1.69  97 1.76 105 1.79 129 1.82 161 1.82 153 1.87
 122  0.391  0.468  0.165-  32 1.66 106 1.72  98 1.75 162 1.80 130 1.81 154 1.82
 123  0.536  0.399  0.917-  29 1.66 107 1.72 163 1.78 155 1.79 131 1.81  99 1.82
 124  0.611  0.538  0.659-  30 1.66 108 1.78 100 1.79 164 1.81 132 1.83 156 1.83
 125  0.113  0.961  0.590-  27 1.66 109 1.78 101 1.79 165 1.80 157 1.82 133 1.83
 126  0.038  0.102  0.331-  28 1.65 110 1.73 158 1.78 166 1.79 134 1.81 102 1.82
 127  0.889  0.033  0.082-  25 1.66 111 1.71 103 1.76 167 1.79 135 1.81 159 1.82
 128  0.966  0.877  0.838-  26 1.69 104 1.77 112 1.78 136 1.81 168 1.82 160 1.84
 129  0.458  0.802  0.421-  68 1.69 169 1.72 105 1.76 121 1.82 161 1.83 177 1.87
 130  0.213  0.464  0.175-  65 1.68 170 1.77 162 1.78 178 1.78 106 1.79 122 1.81
 131  0.536  0.220  0.921-  66 1.71 171 1.76 179 1.78 163 1.79 123 1.81 107 1.84
 132  0.790  0.540  0.668-  67 1.71 172 1.73 108 1.78 180 1.79 124 1.83 164 1.83
 133  0.293  0.959  0.582-  70 1.71 169 1.73 109 1.78 181 1.81 125 1.83 165 1.83
 134  0.038  0.281  0.327-  71 1.71 170 1.76 182 1.78 166 1.80 126 1.81 110 1.84
 135  0.712  0.038  0.073-  72 1.67 171 1.76 111 1.78 167 1.78 183 1.79 127 1.81
 136  0.958  0.698  0.827-  69 1.69 172 1.72 112 1.76 128 1.81 168 1.83 184 1.88
 137  0.189  0.596  0.444- 185 1.72 149 1.74 145 1.79  97 1.79 113 1.82 153 1.83 173 1.84 141 2.03

 138  0.399  0.189  0.197- 186 1.67 150 1.72 114 1.77 174 1.78  98 1.82 146 1.84 154 1.85 142 1.93

 139  0.819  0.414  0.950- 175 1.68  99 1.72 115 1.84 151 1.86 147 1.87 155 1.92 143 1.95
 140  0.583  0.820  0.699- 176 1.69 100 1.74 148 1.81 152 1.85 156 1.86 116 1.87 144 2.02
 141  0.083  0.681  0.550- 173 1.69 101 1.74 149 1.82 145 1.85 157 1.86 117 1.87 137 2.03
 142  0.320  0.084  0.297- 174 1.69 102 1.72 118 1.85 146 1.88 150 1.89 158 1.92 138 1.93
 143  0.902  0.310  0.051- 187 1.71 147 1.75 119 1.78 175 1.79 103 1.80 159 1.84 151 1.84 139 1.95

 144  0.688  0.907  0.803- 188 1.74 148 1.76 104 1.79 152 1.80 120 1.82 176 1.83 160 1.83 140 2.02

 145  0.265  0.671  0.545- 181 1.71 117 1.73 153 1.74 161 1.77 137 1.79 141 1.85 149 1.88 169 1.93

 146  0.319  0.270  0.298- 118 1.74 162 1.79 170 1.79 154 1.80 138 1.84 182 1.84 142 1.88 150 1.88

 147  0.730  0.322  0.046- 143 1.75 119 1.75 163 1.76 155 1.79 171 1.82 183 1.86 139 1.87 151 1.88

 148  0.668  0.734  0.794- 120 1.73 156 1.74 184 1.75 144 1.76 164 1.77 140 1.81 152 1.88 172 1.94

 149  0.168  0.766  0.454- 137 1.74 113 1.74 157 1.74 165 1.76 177 1.76 141 1.82 145 1.88 169 1.95

 150  0.229  0.179  0.202- 138 1.72 166 1.75 114 1.75 158 1.78 170 1.82 178 1.87 146 1.88 142 1.89

 151  0.819  0.230  0.950- 115 1.73 167 1.78 159 1.79 171 1.80 143 1.84 179 1.85 139 1.86 147 1.88

 152  0.765  0.830  0.703- 180 1.72 116 1.73 160 1.74 168 1.78 144 1.80 140 1.85 148 1.88 172 1.94

 153  0.347  0.540  0.491- 145 1.74 137 1.83  62 1.83 161 1.86 121 1.87  97 1.89
 154  0.462  0.346  0.246- 146 1.80  63 1.80 122 1.82 138 1.85 162 1.87  98 1.90 186 2.17
 155  0.651  0.467  1.000-  64 1.74 123 1.79 147 1.79  99 1.83 163 1.84 139 1.92
 156  0.535  0.652  0.743- 148 1.74  61 1.80 124 1.83 100 1.84 164 1.84 140 1.86
 157  0.036  0.848  0.506- 149 1.74  60 1.79 125 1.82 101 1.84 165 1.85 141 1.86
 158  0.151  0.034  0.248-  57 1.74 126 1.78 150 1.78 102 1.84 166 1.85 142 1.92
 159  0.961  0.153  0.001-  58 1.79 151 1.79 127 1.82 143 1.84 167 1.86 103 1.90
 160  0.849  0.959  0.757- 152 1.74  59 1.80 144 1.83 128 1.84 168 1.86 104 1.88
 161  0.436  0.694  0.525- 100 1.74 145 1.77 169 1.81 121 1.82 129 1.83 153 1.86 181 1.92
 162  0.313  0.445  0.278-  97 1.69 130 1.78 146 1.79 122 1.80 154 1.87 170 1.91
 163  0.559  0.314  0.028-  98 1.68 147 1.76 123 1.78 131 1.79 155 1.84 171 1.88 183 2.17
 164  0.688  0.563  0.773-  99 1.76 148 1.77 124 1.81 172 1.82 132 1.83 156 1.84 184 1.87
 165  0.191  0.937  0.476- 149 1.76 102 1.76 169 1.80 125 1.80 133 1.83 157 1.85 177 1.86
 166  0.059  0.187  0.220- 103 1.68 150 1.75 126 1.79 134 1.80 158 1.85 170 1.89
 167  0.812  0.056  0.970- 104 1.69 151 1.78 135 1.78 127 1.79 159 1.86 171 1.91
 168  0.936  0.804  0.722- 101 1.74 152 1.78 172 1.81 128 1.82 136 1.83 160 1.86 180 1.94
 169  0.335  0.838  0.501- 181 1.69 129 1.72 177 1.72 133 1.73 165 1.80 161 1.81 145 1.93 149 1.95

 170  0.166  0.333  0.251- 134 1.76 130 1.77 146 1.79 150 1.82 182 1.85 178 1.86 166 1.89 162 1.91

 171  0.666  0.169  0.997- 135 1.76 131 1.76 151 1.80 147 1.82 179 1.84 183 1.86 163 1.88 167 1.91

 172  0.833  0.662  0.748- 180 1.69 184 1.72 136 1.72 132 1.73 168 1.81 164 1.82 152 1.94 148 1.94

 173  0.031  0.542  0.495- 185 1.65 141 1.69  39 1.76 137 1.84  35 1.93
 174  0.459  0.036  0.242- 186 1.67 142 1.69  40 1.76 138 1.78  36 1.92
 175  0.958  0.466  0.004- 187 1.64 139 1.68  33 1.76 143 1.79  37 1.94
 176  0.529  0.958  0.753- 188 1.63 140 1.69  34 1.77 144 1.83  38 1.93
 177  0.287  0.849  0.383- 169 1.72 149 1.76 113 1.78 105 1.80 165 1.86 129 1.87 102 2.15
 178  0.166  0.312  0.121- 187 1.65 106 1.71 114 1.77 130 1.78 170 1.86 150 1.87
 179  0.688  0.176  0.867- 188 1.66 107 1.73 131 1.78 115 1.79 171 1.84 151 1.85
 180  0.829  0.707  0.632- 172 1.69 152 1.72 108 1.74 116 1.77 132 1.79 168 1.94
 181  0.332  0.791  0.616- 169 1.69 145 1.71 109 1.75 117 1.77 133 1.81 161 1.92
 182  0.190  0.325  0.382- 185 1.66 110 1.72 134 1.78 118 1.79 146 1.84 170 1.85
 183  0.666  0.191  0.128- 186 1.65 111 1.71 119 1.78 135 1.79 171 1.86 147 1.86 163 2.17
 184  0.785  0.652  0.865- 172 1.72 148 1.75 120 1.77 112 1.80 164 1.87 136 1.88  99 2.15
 185  0.145  0.434  0.464- 173 1.65 182 1.66 137 1.72  35 1.97
 186  0.559  0.161  0.213- 183 1.65 174 1.67 138 1.67  36 2.08 154 2.17
 187  0.064  0.352  0.035- 175 1.64 178 1.65 143 1.71  37 2.00
 188  0.635  0.069  0.787- 176 1.63 179 1.66 144 1.74  38 1.94
 189  0.223  0.231  0.735-  74 1.72  78 1.76   3 1.79  82 1.86  19 1.89  94 1.92
 190  0.806  0.214  0.463-   4 1.69  79 1.72  75 1.73  20 1.75  95 1.82  83 1.83
 191  0.754  0.733  0.225-  80 1.70  96 1.77   1 1.80  88 1.80  76 1.91  23 2.05
 192  0.248  0.770  0.001-  73 1.74  77 1.82  81 1.88   2 1.96  18 2.00  89 2.00   8 2.05  93 2.09
                            85 2.17
 
  LATTYP: Found a triclinic cell.
 ALAT       =    17.3563504924
 B/A-ratio  =     0.5846915571
 C/A-ratio  =     0.5815083080
 COS(alpha) =     0.0001407953
 COS(beta)  =     0.0042368305
 COS(gamma) =     0.5849761364
  
  Lattice vectors:
  
 A1 = (  10.1506285443,  -0.0367802191, -14.0785755596)
 A2 = (  10.1481114208,  -0.0007137177,  -0.0017443091)
 A3 = (   0.0007067564, -10.0928289033,  -0.0258404957)
 Subroutine PRICEL returns:
 Original cell was already a primitive cell.
 

Analysis of symmetry for initial positions (statically):

 Routine SETGRP: Setting up the symmetry group for a 
 triclinic supercell.


 Subroutine GETGRP returns: Found  1 space group operations
 (whereof  1 operations were pure point group operations)
 out of a pool of  2 trial point group operations.


The static configuration has the point symmetry C_1 .

Analysis of symmetry for dynamics (positions and initial velocities):

 Subroutine DYNSYM returns: Found  1 space group operations
 (whereof  1 operations were pure point group operations)
 out of a pool of  1 trial space group operations
 (whereof  1 operations were pure point group operations)
 and found also     1 'primitive' translations


The dynamic configuration has the point symmetry C_1 .
 
 
 KPOINTS: Automatic mesh                          

Automatic generation of k-mesh.
 
 Subroutine IBZKPT returns following result:
 ===========================================
 
 Found     24 irreducible k-points:
 
 Following reciprocal coordinates:
            Coordinates               Weight
  0.125000  0.125000  0.000000      2.000000
  0.375000  0.125000  0.000000      2.000000
 -0.375000  0.125000  0.000000      2.000000
 -0.125000  0.125000  0.000000      2.000000
  0.125000  0.375000  0.000000      2.000000
  0.375000  0.375000  0.000000      2.000000
 -0.375000  0.375000  0.000000      2.000000
 -0.125000  0.375000  0.000000      2.000000
  0.125000  0.125000  0.333333      2.000000
  0.375000  0.125000  0.333333      2.000000
 -0.375000  0.125000  0.333333      2.000000
 -0.125000  0.125000  0.333333      2.000000
  0.125000  0.375000  0.333333      2.000000
  0.375000  0.375000  0.333333      2.000000
 -0.375000  0.375000  0.333333      2.000000
 -0.125000  0.375000  0.333333      2.000000
  0.125000 -0.375000  0.333333      2.000000
  0.375000 -0.375000  0.333333      2.000000
 -0.375000 -0.375000  0.333333      2.000000
 -0.125000 -0.375000  0.333333      2.000000
  0.125000 -0.125000  0.333333      2.000000
  0.375000 -0.125000  0.333333      2.000000
 -0.375000 -0.125000  0.333333      2.000000
 -0.125000 -0.125000  0.333333      2.000000
 
 Following cartesian coordinates:
            Coordinates               Weight
  0.012318  0.012386 -0.000030      2.000000
  0.036954  0.012388 -0.000025      2.000000
 -0.036952  0.012383 -0.000038      2.000000
 -0.012317  0.012384 -0.000034      2.000000
  0.012320  0.037156 -0.000093      2.000000
  0.036955  0.037158 -0.000089      2.000000
 -0.036950  0.037153 -0.000102      2.000000
 -0.012315  0.037154 -0.000097      2.000000
  0.012322  0.012325  0.023650      2.000000
  0.036958  0.012327  0.023655      2.000000
 -0.036948  0.012322  0.023641      2.000000
 -0.012313  0.012324  0.023646      2.000000
  0.012324  0.037096  0.023587      2.000000
  0.036959  0.037097  0.023591      2.000000
 -0.036946  0.037092  0.023578      2.000000
 -0.012311  0.037094  0.023582      2.000000
  0.012319 -0.037215  0.023777      2.000000
  0.036954 -0.037213  0.023782      2.000000
 -0.036951 -0.037219  0.023768      2.000000
 -0.012316 -0.037217  0.023773      2.000000
  0.012321 -0.012445  0.023714      2.000000
  0.036956 -0.012443  0.023718      2.000000
 -0.036949 -0.012448  0.023705      2.000000
 -0.012314 -0.012447  0.023709      2.000000
 


--------------------------------------------------------------------------------------------------------




 Dimension of arrays:
   k-points           NKPTS =     24   k-points in BZ     NKDIM =     24   number of bands    NBANDS=    386
   number of dos      NEDOS =    301   number of ions     NIONS =    192
   non local maximal  LDIM  =      4   non local SUM 2l+1 LMDIM =      8
   total plane-waves  NPLWV = 147456
   max r-space proj   IRMAX =   1377   max aug-charges    IRDMAX=   1794
   dimension x,y,z NGX =    48 NGY =   48 NGZ =   64
   dimension x,y,z NGXF=    96 NGYF=   96 NGZF=  128
   support grid    NGXF=    96 NGYF=   96 NGZF=  128
   ions per type =             192
 NGX,Y,Z   is equivalent  to a cutoff of   7.86,  7.91,  7.56 a.u.
 NGXF,Y,Z  is equivalent  to a cutoff of  15.73, 15.81, 15.12 a.u.


 I would recommend the setting:
   dimension x,y,z NGX =    44 NGY =   44 NGZ =   61
 SYSTEM =  B192                                    
 POSCAR =  XYZ: B192Vac4                           

 Startparameter for this run:
   NWRITE =      2    write-flag & timer
   PREC   = normal    normal or accurate (medium, high low for compatibility)
   ISTART =      0    job   : 0-new  1-cont  2-samecut
   ICHARG =      2    charge: 1-file 2-atom 10-const
   ISPIN  =      1    spin polarized calculation?
   LNONCOLLINEAR =      F non collinear calculations
   LSORBIT =      F    spin-orbit coupling
   INIWAV =      1    electr: 0-lowe 1-rand  2-diag
   LASPH  =      F    aspherical Exc in radial PAW
   METAGGA=      F    non-selfconsistent MetaGGA calc.

 Electronic Relaxation 1
   ENCUT  =  318.6 eV  23.42 Ry    4.84 a.u.  14.77 14.69 20.49*2*pi/ulx,y,z
   ENINI  =  318.6     initial cutoff
   ENAUG  =  535.5 eV  augmentation charge cutoff
   NELM   =     40;   NELMIN=  2; NELMDL=  0     # of ELM steps 
   EDIFF  = 0.1E-05   stopping-criterion for ELM
   LREAL  =      T    real-space projection
   NLSPLINE    = F    spline interpolate recip. space projectors
   LCOMPAT=      F    compatible to vasp.4.4
   GGA_COMPAT  = T    GGA compatible to vasp.4.4-vasp.4.6
   LMAXPAW     = -100 max onsite density
   LMAXMIX     =    2 max onsite mixed and CHGCAR
   VOSKOWN=      0    Vosko Wilk Nusair interpolation
   ROPT   =   -0.00050
 Ionic relaxation
   EDIFFG = 0.1E-04   stopping-criterion for IOM
   NSW    =     10    number of steps for IOM
   NBLOCK =      1;   KBLOCK =     10    inner block; outer block 
   IBRION =      2    ionic relax: 0-MD 1-quasi-New 2-CG
   NFREE  =      1    steps in history (QN), initial steepest desc. (CG)
   ISIF   =      3    stress and relaxation
   IWAVPR =     11    prediction:  0-non 1-charg 2-wave 3-comb
   ISYM   =      2    0-nonsym 1-usesym 2-fastsym
   LCORR  =      T    Harris-Foulkes like correction to forces

   POTIM  = 0.2500    time-step for ionic-motion
   TEIN   =    0.0    initial temperature
   TEBEG  =    0.0;   TEEND  =   0.0 temperature during run
   SMASS  =  -3.00    Nose mass-parameter (am)
   estimated Nose-frequenzy (Omega)   =  0.10E-29 period in steps =****** mass=  -0.235E-26a.u.
   SCALEE = 1.0000    scale energy and forces
   NPACO  =    256;   APACO  = 16.0  distance and # of slots for P.C.
   PSTRESS=    0.0 pullay stress

  Mass of Ions in am
   POMASS =  10.81
  Ionic Valenz
   ZVAL   =   3.00
  Atomic Wigner-Seitz radii
   RWIGS  =  -1.00
  virtual crystal weights 
   VCA    =   1.00
   NELECT =     576.0000    total number of electrons
   NUPDOWN=      -1.0000    fix difference up-down

 DOS related values:
   EMIN   =  10.00;   EMAX   =-10.00  energy-range for DOS
   EFERMI =   0.00
   ISMEAR =     1;   SIGMA  =   0.20  broadening in eV -4-tet -1-fermi 0-gaus

 Electronic relaxation 2 (details)
   IALGO  =     68    algorithm
   LDIAG  =      T    sub-space diagonalisation (order eigenvalues)
   LSUBROT=      T    optimize rotation matrix (better conditioning)
   TURBO    =      0    0=normal 1=particle mesh
   IRESTART =      0    0=no restart 2=restart with 2 vectors
   NREBOOT  =      0    no. of reboots
   NMIN     =      0    reboot dimension
   EREF     =   0.00    reference energy to select bands
   IMIX   =      4    mixing-type and parameters
     AMIX     =   0.40;   BMIX     =  1.00
     AMIX_MAG =   1.60;   BMIX_MAG =  1.00
     AMIN     =   0.10
     WC   =   100.;   INIMIX=   1;  MIXPRE=   1

 Intra band minimization:
   WEIMIN = 0.0010     energy-eigenvalue tresh-hold
   EBREAK =  0.65E-09  absolut break condition
   DEPER  =   0.30     relativ break condition  

   TIME   =   0.40     timestep for ELM

  volume/ion in A,a.u.               =       7.51        50.68
  Fermi-wavevector in a.u.,A,eV,Ry     =   1.205727  2.278493 19.779840  1.453777
  Thomas-Fermi vector in A             =   2.341415
 
 Write flags
   LWAVE  =      F    write WAVECAR
   LCHARG =      F    write CHGCAR
   LVTOT  =      F    write LOCPOT, total local potential
   LVHAR  =      F    write LOCPOT, Hartree potential only
   LELF   =      F    write electronic localiz. function (ELF)
   LORBIT =      0    0 simple, 1 ext, 2 COOP (PROOUT)


 Dipole corrections
   LMONO  =      F    monopole corrections only (constant potential shift)
   LDIPOL =      F    correct potential (dipole corrections)
   IDIPOL =      0    1-x, 2-y, 3-z, 4-all directions 
   EPSILON=  1.0000000 bulk dielectric constant

 Exchange correlation treatment:
   GGA     =    --    GGA type
   LEXCH   =     8    internal setting for exchange type
   VOSKOWN=      0    Vosko Wilk Nusair interpolation
   LHFCALC =     F    Hartree Fock is set to
   LHFONE  =     F    Hartree Fock one center treatment
   AEXX    =    0.0000 exact exchange contribution

 Linear response parameters
   LEPSILON=     F    determine dielectric tensor
   LRPA    =     F    only Hartree local field effects (RPA)
   LNABLA  =     F    use nabla operator in PAW spheres
   LVEL    =     F    velocity operator in full k-point grid
   LINTERFAST=   F  fast interpolation
   KINTER  =     0    interpolate to denser k-point grid
   CSHIFT  =0.1000    complex shift for real part using Kramers Kronig
   OMEGAMAX=  -1.0    maximum frequency
   RTIME   =    0.100 relaxation time in fs

 Orbital magnetization related:
   ORBITALMAG=     F  switch on orbital magnetization
   LCHIMAG   =     F  perturbation theory with respect to B field
   DQ        =  0.001000  dq finite difference perturbation B field



--------------------------------------------------------------------------------------------------------


 conjugate gradient relaxation of ions
 charge density and potential will be updated during run
 non-spin polarized calculation
 RMM-DIIS sequential band-by-band and
  variant of blocked Davidson during initial phase
 perform sub-space diagonalisation
    before iterative eigenvector-optimisation
 modified Broyden-mixing scheme, WC =      100.0
 initial mixing is a Kerker type mixing with AMIX =  0.4000 and BMIX =      1.0000
 Hartree-type preconditioning will be used
 using additional bands           98
 real space projection scheme for non local part
 use partial core corrections
 calculate Harris-corrections to forces 
   (improved forces if not selfconsistent)
 use gradient corrections 
 use of overlap-Matrix (Vanderbilt PP)
 Methfessel and Paxton  Order N= 1 SIGMA  =   0.20


--------------------------------------------------------------------------------------------------------


  energy-cutoff  :      318.61
  volume of cell :     1441.78
      direct lattice vectors                 reciprocal lattice vectors
    10.148111421 -0.000713718 -0.001744309     0.098540506  0.000006855  0.000017603
    -0.000706756 10.092828903  0.025840496     0.000006925  0.099080899 -0.000253856
    -0.002517123  0.036066501 14.076831250     0.000012198 -0.000181880  0.071039183

  length of vectors
    10.148111596 10.092862007 14.076877679     0.098540508  0.099081225  0.071039417


 
 k-points in units of 2pi/SCALE and weight: Automatic mesh                          
   0.01231843  0.01238597 -0.00002953       0.042
   0.03695356  0.01238768 -0.00002513       0.042
  -0.03695182  0.01238254 -0.00003833       0.042
  -0.01231670  0.01238426 -0.00003393       0.042
   0.01232016  0.03715619 -0.00009300       0.042
   0.03695529  0.03715791 -0.00008859       0.042
  -0.03695009  0.03715277 -0.00010180       0.042
  -0.01231497  0.03715448 -0.00009740       0.042
   0.01232249  0.01232534  0.02365020       0.042
   0.03695762  0.01232706  0.02365460       0.042
  -0.03694776  0.01232192  0.02364139       0.042
  -0.01231263  0.01232363  0.02364580       0.042
   0.01232423  0.03709557  0.02358673       0.042
   0.03695935  0.03709728  0.02359113       0.042
  -0.03694603  0.03709214  0.02357793       0.042
  -0.01231090  0.03709385  0.02358233       0.042
   0.01231903 -0.03721511  0.02377712       0.042
   0.03695416 -0.03721339  0.02378152       0.042
  -0.03695122 -0.03721853  0.02376832       0.042
  -0.01231609 -0.03721682  0.02377272       0.042
   0.01232076 -0.01244488  0.02371366       0.042
   0.03695589 -0.01244317  0.02371806       0.042
  -0.03694949 -0.01244831  0.02370486       0.042
  -0.01231436 -0.01244660  0.02370926       0.042
 
 k-points in reciprocal lattice and weights: Automatic mesh                          
   0.12500000  0.12500000  0.00000000       0.042
   0.37500000  0.12500000  0.00000000       0.042
  -0.37500000  0.12500000  0.00000000       0.042
  -0.12500000  0.12500000  0.00000000       0.042
   0.12500000  0.37500000  0.00000000       0.042
   0.37500000  0.37500000  0.00000000       0.042
  -0.37500000  0.37500000  0.00000000       0.042
  -0.12500000  0.37500000  0.00000000       0.042
   0.12500000  0.12500000  0.33333333       0.042
   0.37500000  0.12500000  0.33333333       0.042
  -0.37500000  0.12500000  0.33333333       0.042
  -0.12500000  0.12500000  0.33333333       0.042
   0.12500000  0.37500000  0.33333333       0.042
   0.37500000  0.37500000  0.33333333       0.042
  -0.37500000  0.37500000  0.33333333       0.042
  -0.12500000  0.37500000  0.33333333       0.042
   0.12500000 -0.37500000  0.33333333       0.042
   0.37500000 -0.37500000  0.33333333       0.042
  -0.37500000 -0.37500000  0.33333333       0.042
  -0.12500000 -0.37500000  0.33333333       0.042
   0.12500000 -0.12500000  0.33333333       0.042
   0.37500000 -0.12500000  0.33333333       0.042
  -0.37500000 -0.12500000  0.33333333       0.042
  -0.12500000 -0.12500000  0.33333333       0.042
 
 position of ions in fractional coordinates (direct lattice) 
   0.87374193  0.73421422  0.13108350
   0.26353440  0.87174894  0.88244472
   0.12753024  0.25580316  0.62888970
   0.74160948  0.12410549  0.37292169
   0.24171327  0.37099615  0.87074703
   0.62920303  0.24457994  0.62224756
   0.76501605  0.62857926  0.37242640
   0.37203296  0.76740117  0.11555100
   0.96891012  0.62581313  0.21136056
   0.37431176  0.96853712  0.95991909
   0.03932219  0.37236484  0.70825395
   0.62882116  0.03997464  0.45893925
   0.13393353  0.45978590  0.78931353
   0.54187263  0.13491773  0.54024287
   0.87418994  0.53506930  0.28935734
   0.46691509  0.87392770  0.03600855
   0.95782803  0.81062128  0.22826157
   0.18992194  0.95727443  0.97927153
   0.04204592  0.18866159  0.72931702
   0.81101876  0.04141690  0.47646122
   0.31176993  0.45775146  0.76955891
   0.54095348  0.31213130  0.51775098
   0.69621125  0.54860467  0.26944004
   0.45671547  0.68955353  0.01882286
   0.95910625  0.89039588  0.11349080
   0.10643080  0.95696381  0.86670043
   0.03624477  0.10033169  0.61858252
   0.89763226  0.03323648  0.36265723
   0.39349730  0.46210367  0.88172822
   0.53770509  0.39686401  0.62836188
   0.60853189  0.54410157  0.38043050
   0.45951749  0.61150296  0.13370733
   0.97600931  0.59901945  0.08366610
   0.39572948  0.97457407  0.83299540
   0.03640049  0.38578655  0.57466766
   0.61013176  0.03250700  0.32400620
   0.11186787  0.46506175  0.92285468
   0.53388228  0.11552121  0.67465122
   0.89576097  0.52299532  0.41709284
   0.47515890  0.90183862  0.16303204
   0.95981177  0.76200493  0.02786732
   0.23148168  0.95903408  0.77972366
   0.03838782  0.21614442  0.52726060
   0.77787782  0.03040970  0.27451665
   0.27615143  0.46599553  0.97192030
   0.53323055  0.28409227  0.72193077
   0.72838264  0.53392232  0.47078231
   0.46103970  0.73936484  0.21939005
   0.10846395  0.72463965  0.24523305
   0.27922450  0.11077556  0.99751879
   0.89244940  0.28320403  0.74607016
   0.71971629  0.89406529  0.49420292
   0.22155781  0.60649261  0.75445130
   0.39204404  0.21791014  0.50334196
   0.78207801  0.39041368  0.25112655
   0.60724689  0.77696817  0.00118534
   0.10786797  0.88993934  0.18696757
   0.11057509  0.11005341  0.94129273
   0.89024535  0.10935850  0.69497171
   0.89058167  0.89130766  0.44080313
   0.38847619  0.60902086  0.80804547
   0.38992213  0.38867430  0.55591854
   0.61179909  0.39325097  0.30698638
   0.60666470  0.61116015  0.05951460
   0.12367476  0.60159373  0.15656982
   0.39841344  0.12544204  0.90497674
   0.88404168  0.40191362  0.65117919
   0.59937347  0.88612865  0.40243052
   0.09864560  0.61267800  0.84592852
   0.38780589  0.09787382  0.59801574
   0.90109613  0.37768393  0.34333174
   0.62102372  0.90139998  0.08977149
   0.11321779  0.68560912  0.04748530
   0.31077045  0.11392460  0.79792507
   0.88808073  0.30727695  0.54627377
   0.69245152  0.88272871  0.29458764
   0.18978440  0.61342855  0.95372346
   0.38720422  0.19338708  0.70534317
   0.80899305  0.38348162  0.45237888
   0.61248769  0.81756287  0.19931962
   0.10947465  0.85850543  0.06196425
   0.14045369  0.11080261  0.81478562
   0.88498248  0.13765491  0.56655487
   0.86216720  0.88149724  0.31326211
   0.36235797  0.61353240  0.93501596
   0.38555030  0.36667847  0.68412433
   0.63461642  0.38925108  0.43441339
   0.61045662  0.64354907  0.18495996
   0.20401379  0.75898521  0.13920146
   0.24268939  0.20534048  0.89211404
   0.79493502  0.24494483  0.64279389
   0.75684286  0.79484675  0.39176881
   0.25516386  0.70307941  0.86026531
   0.29845851  0.25431051  0.61065781
   0.74304796  0.29811285  0.35777979
   0.70172279  0.74404161  0.10512360
   0.31728487  0.56804843  0.35955787
   0.44389415  0.31945881  0.11354814
   0.69413343  0.45994147  0.87389675
   0.55214557  0.69518261  0.61657567
   0.05361565  0.80523650  0.63237513
   0.19586671  0.04017674  0.37448622
   0.94360453  0.18094477  0.13399416
   0.81650523  0.93339463  0.88790774
   0.38262874  0.72450554  0.32364337
   0.30052503  0.39370678  0.07700268
   0.61187543  0.31746276  0.82456315
   0.70824631  0.62001711  0.57160979
   0.20948329  0.87814578  0.67691027
   0.11491812  0.18348957  0.42328908
   0.79994279  0.10702369  0.17049898
   0.88169281  0.77713553  0.92374486
   0.20478293  0.70439424  0.34167549
   0.30489798  0.21262774  0.09210788
   0.79476483  0.31400261  0.84332177
   0.69349335  0.80213312  0.59321163
   0.19428790  0.69784997  0.65531077
   0.29603608  0.18657903  0.40528534
   0.80616054  0.28877986  0.15568278
   0.70431326  0.79719942  0.90543694
   0.46685364  0.62301732  0.40897793
   0.39124338  0.46812414  0.16494618
   0.53586891  0.39863321  0.91701618
   0.61063049  0.53807027  0.65872804
   0.11343782  0.96111995  0.58955385
   0.03815417  0.10209842  0.33098228
   0.88924182  0.03264804  0.08241548
   0.96596798  0.87683543  0.83821248
   0.45804684  0.80172543  0.42141015
   0.21337631  0.46384624  0.17498829
   0.53645748  0.21964603  0.92131122
   0.79029420  0.54034471  0.66752195
   0.29299500  0.95936390  0.58191859
   0.03789832  0.28105989  0.32734937
   0.71166632  0.03822942  0.07306580
   0.95759769  0.69815926  0.82701399
   0.18860388  0.59614758  0.44445244
   0.39870437  0.18936578  0.19715108
   0.81873233  0.41448520  0.95042446
   0.58314047  0.81973336  0.69901195
   0.08283940  0.68072662  0.54996631
   0.31966190  0.08448468  0.29742719
   0.90217862  0.31025374  0.05050871
   0.68794810  0.90675404  0.80329028
   0.26502081  0.67079686  0.54538976
   0.31869728  0.27039063  0.29838295
   0.73014075  0.32179063  0.04626809
   0.66823498  0.73429899  0.79419663
   0.16834730  0.76637045  0.45358024
   0.22938742  0.17907172  0.20162532
   0.81882434  0.23039769  0.94981614
   0.76497503  0.82992724  0.70254055
   0.34749985  0.54026200  0.49094434
   0.46249756  0.34643779  0.24608806
   0.65075969  0.46664203  0.99992081
   0.53479310  0.65242363  0.74313146
   0.03611797  0.84807920  0.50554668
   0.15137749  0.03373570  0.24752283
   0.96130136  0.15301176  0.00128109
   0.84880055  0.95900472  0.75729597
   0.43579667  0.69447383  0.52548756
   0.31310286  0.44549389  0.27827807
   0.55868920  0.31425514  0.02752695
   0.68760344  0.56277421  0.77298206
   0.19082095  0.93657673  0.47575033
   0.05873592  0.18708925  0.22010893
   0.81166399  0.05578077  0.96952875
   0.93600273  0.80413857  0.72241086
   0.33467386  0.83813605  0.50074603
   0.16642058  0.33300008  0.25145917
   0.66577204  0.16877415  0.99677145
   0.83301299  0.66200355  0.74802238
   0.03060532  0.54209091  0.49486607
   0.45942127  0.03593714  0.24208363
   0.95781802  0.46617499  0.00385590
   0.52931501  0.95815893  0.75320981
   0.28722337  0.84869251  0.38348181
   0.16632329  0.31165078  0.12058767
   0.68841595  0.17640773  0.86702690
   0.82926594  0.70688825  0.63233094
   0.33194613  0.79077530  0.61631662
   0.18998551  0.32509688  0.38172696
   0.66617925  0.19086415  0.12784949
   0.78531126  0.65239296  0.86478339
   0.14453635  0.43400398  0.46361428
   0.55932031  0.16093543  0.21347854
   0.06374282  0.35159317  0.03452418
   0.63510653  0.06949837  0.78678460
   0.22318388  0.23121469  0.73463404
   0.80581375  0.21377151  0.46260603
   0.75353351  0.73317245  0.22532053
   0.24823883  0.77014679  0.00077084
 
 position of ions in cartesian coordinates  (Angst):
   8.86598160  7.41440258  1.86268875
   2.67153908  8.83005153 12.44409213
   1.29242734  2.60436835  8.85916179
   7.52490925  1.26549618  5.25146909
   2.45047919  3.77563297 12.26652408
   6.38348334  2.49049675  8.76449639
   7.76208637  6.35702906  5.25749198
   3.77459870  7.74915072  1.64577308
   9.83163354  6.32315637  2.98976824
   3.79545667  9.80963316 13.53699354
   0.39700002  3.78373079  9.97952480
   6.38016379  0.41956076  6.46034654
   1.35686066  4.66891264 11.12268086
   5.49752865  1.38079951  7.60744885
   8.87027042  5.41017503  4.08553605
   4.73759807  8.82136825  0.52865463
   9.71899810  8.18901090  3.23247567
   1.92420750  9.69679034 13.80944528
   0.42471759  1.93040303 10.27127445
   8.22908020  0.43461911  6.70671972
   3.16161541  4.64753992 10.84423568
   5.48813237  3.16857523  7.29541520
   7.06416340  5.54619389  3.80582372
   4.63426473  6.95989875  0.28198801
   9.73220215  8.99002199  1.61892614
   1.07721364  9.68965494 12.22493851
   0.36618798  1.03491485  8.71021108
   9.10833582  0.34788920  5.10435772
   3.99070842  4.69545323 12.42319397
   5.45482902  4.02775958  8.85466133
   6.17410730  5.50481057  5.36825432
   4.66246590  6.17628914  1.89717557
   9.90401731  6.04812177  1.19153003
   4.01312130  9.86597015 11.75042884
   0.36767711  3.91437791  8.09940513
   6.19084654  0.33933789  4.56075631
   1.13259600  4.72699300 13.00269195
   5.41611707  1.18988709  9.49900521
   9.08886262  5.29290602  5.88329749
   4.82091769  9.10764374  2.31744964
   9.73966805  7.69110542  0.41029992
   2.34646144  9.70732357 11.00041653
   0.38808397  2.20049768  7.42767688
   7.89327834  0.31626558  3.86375345
   2.79963972  4.73806985 13.69311798
   5.40926502  2.89295163 10.16890858
   7.39014578  5.40524625  6.63964937
   4.67760748  7.46986645  3.10661813
   1.09957485  7.32243131  3.47064012
   2.83101220  1.15381650 14.04427916
   9.05459788  2.88460101 10.50806514
   7.30188523  9.04095848  6.97865873
   2.24606570  6.14827839 10.63556928
   3.97708564  2.21720378  7.09040695
   7.93570674  3.94887753  3.54379038
   6.16185699  7.84141611  0.03570385
   1.09355657  8.98867177  2.65471930
   1.11968117  1.14462048 13.25306988
   9.03248242  1.12816647  9.78427256
   9.03598254  9.01107829  6.22658966
   3.93983525  6.17560947 11.38977950
   3.95529917  3.94259492  7.83493483
   6.20755472  3.97965007  4.33049015
   6.15591926  6.17004828  0.85251145
   1.25424595  6.07734120  2.21933664
   4.04077736  1.29842008 12.74175144
   8.96943031  4.07930025  9.17538319
   6.08086946  8.95763131  5.68679899
   0.99850417  6.21409345 11.92365287
   3.93392298  1.00911530  8.42001926
   9.14329276  3.82363893  4.84121068
   6.30135490  9.10047032  1.28590752
   1.14834271  6.92136735  0.68596149
   3.15164413  1.17837804 11.23465841
   9.01074997  3.12036201  7.69619477
   7.02570979  8.91936032  4.16846279
   1.92311908  6.22549141 13.44092441
   3.92747950  1.97698558  9.93331866
   8.20834190  3.88615270  6.37655938
   6.21451376  8.25827381  2.82584645
   1.11019823  8.66690514  0.89425354
   1.42321046  1.14759799 11.47221794
   8.97937745  1.40912950  7.97731064
   8.74795724  8.90748371  4.43101228
   3.67446186  6.22574163 13.17728382
   3.91062625  3.72522183  9.63910541
   6.43878960  3.94385944  6.12411552
   6.19406140  6.50146586  2.61921489
   2.06946788  7.66518280  1.97877210
   2.46044832  2.10446858 12.56302163
   8.06529802  2.49480219  9.05344402
   7.67897776  8.03584179  5.53408244
   2.58676894  7.12690480 12.12753240
   3.02707339  2.58852377  8.60217786
   7.53942225  3.02117558  5.04281297
   7.12037063  7.51277529  1.49780963
   3.21853571  5.74595713  5.07556066
   4.50417568  3.22802155  1.60587869
   7.04161862  4.67313350 12.31237139
   5.60119144  7.03820279  8.69643247
   0.54193667  8.14988353  8.92255216
   1.98670613  0.41886353  5.27227585
   9.57533874  1.83040379  1.88924289
   8.28309140  9.45203324 12.52162260
   3.88163240  7.32371003  4.57392724
   3.04928942  3.97617793  1.09360308
   6.20708018  3.23339971 11.61437236
   7.18548544  6.27783710  8.06124072
   2.12353524  8.88723934  9.55107800
   1.16500669  1.86711341  5.96310994
   8.11740374  1.08575017  2.40145554
   8.94464241  7.87618290 13.02194414
   2.07680209  7.12150743  4.82755294
   3.09375654  2.14911977  1.30154962
   8.06301736  3.19902300 11.87802590
   7.03558768  8.11669243  8.37005784
   1.96951257  7.06677641  9.24239296
   3.00305507  1.89751614  5.70943824
   8.18041098  2.91964528  2.19757625
   7.14460694  8.07815066 12.76505445
   4.73621294  6.30242441  5.77239805
   3.96963537  4.73036661  2.33333367
   5.43546745  4.05602790 12.91804818
   6.19470788  5.45397332  9.28564238
   1.14901638  9.72160139  8.32368796
   0.38628751  1.04237201  4.66175349
   9.02389451  0.33184889  1.15944135
   9.80002108  8.87929193 11.82034853
   4.64668299  8.10654946  5.95203760
   2.16459823  4.68767964  2.47489444
   5.44155601  2.24969539 12.97388262
   8.01793144  5.47711780  9.40917811
   2.97120307  9.70347430  8.21584918
   0.38357377  2.84846871  4.61523840
   7.22185822  0.38797031  1.02828143
   9.71523289  7.07554604 11.65810685
   1.91243315  6.03271079  6.27155777
   4.04546630  1.91806240  2.77946038
   8.30590164  4.21702240 13.38824712
   5.91543565  8.29822330  9.86003834
   0.83879806  6.89023359  7.75922876
   3.24315625  0.86318845  4.18845790
   9.15506280  3.13251565  0.71744603
   6.97871117  9.18019428 11.33001274
   2.68761382  6.78971914  7.69423104
   3.23323336  2.73954049  4.20671761
   7.40920577  3.24892543  0.65834975
   6.77880498  7.43932108 11.19758098
   1.70672381  7.75108474  6.40448226
   2.32721500  1.81444842  2.84247273
   8.30696704  2.35903664 13.37492682
   7.76069693  8.40110582  9.90965614
   3.52484957  5.47023051  6.92429517
   4.69261248  3.50508279  3.47228551
   6.60113511  4.74533738 14.08663958
   5.42480830  6.61122054 10.47686221
   0.36465727  8.57772578  7.13834704
   1.53554872  0.34930792  3.48494486
   9.75528197  1.54368166  0.02031079
   8.61113858  9.70577777 10.68362818
   4.42069962  7.02784698  7.41438505
   3.17638742  4.50610668  3.92823907
   5.66934888  3.17231739  0.39463823
   6.97553288  5.70737184 10.89448101
   1.93461279  9.46973111  6.72092593
   0.59537236  1.89615645  3.10316832
   8.23437672  0.59737393 13.64791816
   9.49627326  8.14141980 10.18840242
   3.39445479  8.47698507  7.06999141
   1.68798631  3.36986329  3.54806291
   6.75370056  1.73888350 14.03458341
   8.45115790  6.70787260 10.54543835
   0.30895739  5.48905700  6.98010064
   4.66162346  0.37111060  3.40789768
   9.71970478  4.70447987  0.06465430
   5.36897455  9.69732204 10.62664340
   2.91320970  8.57933416  5.41963838
   1.68734352  3.14966850  1.70525537
   6.98381472  1.81123231 12.20834902
   8.41339187  7.15671625  8.91803573
   3.36651606  8.00315128  8.69564003
   1.92680349  3.29477918  5.38157530
   6.76000457  1.93049479  1.80348570
   7.96678831  6.61511975 12.18889819
   1.46529725  4.39694572  6.53718272
   5.67539369  1.63159400  3.00828439
   0.64653382  3.54976943  0.49496517
   6.44310232  0.72935840 11.07612204
   2.26288232  2.35994673 10.34690476
   8.17617220  2.17366877  6.51614546
   7.64585668  7.40737278  3.18943019
   2.51860905  7.77281037  0.03031895
 


--------------------------------------------------------------------------------------------------------


 k-point  1 :  0.12500.12500.0000  plane waves:   18629
 k-point  2 :  0.37500.12500.0000  plane waves:   18627
 k-point  3 :  -.37500.12500.0000  plane waves:   18628
 k-point  4 :  -.12500.12500.0000  plane waves:   18626
 k-point  5 :  0.12500.37500.0000  plane waves:   18626
 k-point  6 :  0.37500.37500.0000  plane waves:   18614
 k-point  7 :  -.37500.37500.0000  plane waves:   18617
 k-point  8 :  -.12500.37500.0000  plane waves:   18629
 k-point  9 :  0.12500.12500.3333  plane waves:   18614
 k-point 10 :  0.37500.12500.3333  plane waves:   18633
 k-point 11 :  -.37500.12500.3333  plane waves:   18634
 k-point 12 :  -.12500.12500.3333  plane waves:   18611
 k-point 13 :  0.12500.37500.3333  plane waves:   18612
 k-point 14 :  0.37500.37500.3333  plane waves:   18609
 k-point 15 :  -.37500.37500.3333  plane waves:   18612
 k-point 16 :  -.12500.37500.3333  plane waves:   18610
 k-point 17 :  0.1250-.37500.3333  plane waves:   18621
 k-point 18 :  0.3750-.37500.3333  plane waves:   18617
 k-point 19 :  -.3750-.37500.3333  plane waves:   18621
 k-point 20 :  -.1250-.37500.3333  plane waves:   18619
 k-point 21 :  0.1250-.12500.3333  plane waves:   18618
 k-point 22 :  0.3750-.12500.3333  plane waves:   18621
 k-point 23 :  -.3750-.12500.3333  plane waves:   18623
 k-point 24 :  -.1250-.12500.3333  plane waves:   18613

 maximum and minimum number of plane-waves per node :      9347     9282

 maximum number of plane-waves:     18634
 maximum index in each direction: 
   IXMAX=   15   IYMAX=   15   IZMAX=   20
   IXMIN=  -15   IYMIN=  -15   IZMIN=  -20

 WARNING: aliasing errors must be expected set NGX to  62 to avoid them
 WARNING: aliasing errors must be expected set NGY to  62 to avoid them
 WARNING: aliasing errors must be expected set NGZ to  82 to avoid them
 aliasing errors are usually negligible using standard VASP settings
 and one can safely disregard these warnings

 real space projection operators:
  total allocation   :      15460.12 KBytes
  max/ min on nodes  :       7734.38       7725.75


 parallel 3D FFT for wavefunctions:
    minimum data exchange during FFTs selected (reduces bandwidth)
 parallel 3D FFT for charge:
    minimum data exchange during FFTs selected (reduces bandwidth)


 total amount of memory used by VASP on root node   822742. kBytes
========================================================================

   base      :      30000. kBytes
   nonlr-proj:      13904. kBytes
   fftplans  :      12299. kBytes
   grid      :      17270. kBytes
   one-center:        294. kBytes
   wavefun   :     748975. kBytes
 
 Broyden mixing: mesh for mixing (old mesh)
   NGX = 29   NGY = 29   NGZ = 41
  (NGX  = 96   NGY  = 96   NGZ  =128)
  gives a total of  34481 points

 initial charge density was supplied:
 charge density of overlapping atoms calculated
 number of electron     576.0000000 magnetization 
 keeping initial charge density in first step


--------------------------------------------------------------------------------------------------------


 Maximum index for non-local projection operator          664
 Maximum index for augmentation-charges          404 (set IRDMAX)


--------------------------------------------------------------------------------------------------------


 First call to EWALD:  gamma=   0.157
 Maximum number of real-space cells 3x 3x 2
 Maximum number of reciprocal cells 3x 3x 3

    FEWALD:  cpu time    0.14: real time    0.14


----------------------------------------- Iteration    1(   1)  ---------------------------------------


    POTLOK:  cpu time    0.34: real time    0.34
    SETDIJ:  cpu time    0.06: real time    0.06
     EDDAV:  cpu time  263.88: real time  280.46
       DOS:  cpu time    0.02: real time    0.02
    --------------------------------------------
      LOOP:  cpu time  264.30: real time  280.92

 eigenvalue-minimisations  : 18616
 total energy-change (2. order) : 0.9757799E+03  (-0.1979144E+05)
 number of electron     576.0000000 magnetization 
 augmentation part      576.0000000 magnetization 

 Free energy of the ion-electron system (eV)
  ---------------------------------------------------
  alpha Z        PSCENC =      1758.97540412
  Ewald energy   TEWEN  =    -15374.85448776
  -1/2 Hartree   DENC   =     -1730.05159462
  -exchange  EXHF       =         0.00000000
  -V(xc)+E(xc)   XCENC  =      1390.70081995
  PAW double counting   =      8351.97417706    -8187.75274718
  entropy T*S    EENTRO =         0.00024326
  eigenvalues    EBANDS =      1103.46119905
  atomic energy  EATOM  =     13663.32686481
  ---------------------------------------------------
  free energy    TOTEN  =       975.77987868 eV

  energy without entropy =      975.77963541  energy(sigma->0) =      975.77979759


--------------------------------------------------------------------------------------------------------




----------------------------------------- Iteration    1(   2)  ---------------------------------------


     EDDAV:  cpu time  323.37: real time  340.85
       DOS:  cpu time    0.02: real time    0.02
    --------------------------------------------
      LOOP:  cpu time  323.40: real time  340.88

 eigenvalue-minimisations  : 23246
 total energy-change (2. order) :-0.2205459E+04  (-0.2069462E+04)
 number of electron     576.0000000 magnetization 
 augmentation part      576.0000000 magnetization 

 Free energy of the ion-electron system (eV)
  ---------------------------------------------------
  alpha Z        PSCENC =      1758.97540412
  Ewald energy   TEWEN  =    -15374.85448776
  -1/2 Hartree   DENC   =     -1730.05159462
  -exchange  EXHF       =         0.00000000
  -V(xc)+E(xc)   XCENC  =      1390.70081995
  PAW double counting   =      8351.97417706    -8187.75274718
  entropy T*S    EENTRO =         0.05887540
  eigenvalues    EBANDS =     -1102.05676003
  atomic energy  EATOM  =     13663.32686481
  ---------------------------------------------------
  free energy    TOTEN  =     -1229.67944826 eV

  energy without entropy =    -1229.73832367  energy(sigma->0) =    -1229.69907340


--------------------------------------------------------------------------------------------------------




----------------------------------------- Iteration    1(   3)  ---------------------------------------


     EDDAV:  cpu time  338.55: real time  362.08
       DOS:  cpu time    0.02: real time    0.02
    --------------------------------------------
      LOOP:  cpu time  338.60: real time  362.15

 eigenvalue-minimisations  : 22464
 total energy-change (2. order) :-0.1180085E+03  (-0.1159150E+03)
 number of electron     576.0000000 magnetization 
 augmentation part      576.0000000 magnetization 

 Free energy of the ion-electron system (eV)
  ---------------------------------------------------
  alpha Z        PSCENC =      1758.97540412
  Ewald energy   TEWEN  =    -15374.85448776
  -1/2 Hartree   DENC   =     -1730.05159462
  -exchange  EXHF       =         0.00000000
  -V(xc)+E(xc)   XCENC  =      1390.70081995
  PAW double counting   =      8351.97417706    -8187.75274718
  entropy T*S    EENTRO =         0.09422128
  eigenvalues    EBANDS =     -1220.10056109
  atomic energy  EATOM  =     13663.32686481
  ---------------------------------------------------
  free energy    TOTEN  =     -1347.68790345 eV

  energy without entropy =    -1347.78212473  energy(sigma->0) =    -1347.71931054


--------------------------------------------------------------------------------------------------------




----------------------------------------- Iteration    1(   4)  ---------------------------------------


     EDDAV:  cpu time  300.87: real time  314.60
       DOS:  cpu time    0.02: real time    0.02
    --------------------------------------------
      LOOP:  cpu time  300.89: real time  314.64

 eigenvalue-minimisations  : 22032
 total energy-change (2. order) :-0.2285182E+01  (-0.2271025E+01)
 number of electron     576.0000000 magnetization 
 augmentation part      576.0000000 magnetization 

 Free energy of the ion-electron system (eV)
  ---------------------------------------------------
  alpha Z        PSCENC =      1758.97540412
  Ewald energy   TEWEN  =    -15374.85448776
  -1/2 Hartree   DENC   =     -1730.05159462
  -exchange  EXHF       =         0.00000000
  -V(xc)+E(xc)   XCENC  =      1390.70081995
  PAW double counting   =      8351.97417706    -8187.75274718
  entropy T*S    EENTRO =         0.09523659
  eigenvalues    EBANDS =     -1222.38675863
  atomic energy  EATOM  =     13663.32686481
  ---------------------------------------------------
  free energy    TOTEN  =     -1349.97308568 eV

  energy without entropy =    -1350.06832227  energy(sigma->0) =    -1350.00483121


--------------------------------------------------------------------------------------------------------




----------------------------------------- Iteration    1(   5)  ---------------------------------------


     EDDAV:  cpu time  309.30: real time  335.77
       DOS:  cpu time    0.02: real time    0.02
    CHARGE:  cpu time    7.02: real time    7.11
    MIXING:  cpu time    0.01: real time    0.01
    --------------------------------------------
      LOOP:  cpu time  316.60: real time  343.25

 eigenvalue-minimisations  : 22144
 total energy-change (2. order) :-0.7270421E-01  (-0.7253805E-01)
 number of electron     575.9999998 magnetization 
 augmentation part       -1.5868306 magnetization 

 Broyden mixing:
  rms(total) = 0.45568E+01    rms(broyden)= 0.45560E+01
  rms(prec ) = 0.53216E+01
  weight for this iteration     100.00

 Free energy of the ion-electron system (eV)
  ---------------------------------------------------
  alpha Z        PSCENC =      1758.97540412
  Ewald energy   TEWEN  =    -15374.85448776
  -1/2 Hartree   DENC   =     -1730.05159462
  -exchange  EXHF       =         0.00000000
  -V(xc)+E(xc)   XCENC  =      1390.70081995
  PAW double counting   =      8351.97417706    -8187.75274718
  entropy T*S    EENTRO =         0.09530493
  eigenvalues    EBANDS =     -1222.45953118
  atomic energy  EATOM  =     13663.32686481
  ---------------------------------------------------
  free energy    TOTEN  =     -1350.04578989 eV

  energy without entropy =    -1350.14109482  energy(sigma->0) =    -1350.07755820


--------------------------------------------------------------------------------------------------------




----------------------------------------- Iteration    1(   6)  ---------------------------------------


    POTLOK:  cpu time    0.73: real time    0.73
    SETDIJ:  cpu time    0.09: real time    0.09
    EDDIAG:  cpu time   36.29: real time   40.67
  RMM-DIIS:  cpu time  102.75: real time  112.26
    ORTHCH:  cpu time   11.02: real time   12.12
       DOS:  cpu time    0.02: real time    0.02
    CHARGE:  cpu time    8.16: real time    9.49
    MIXING:  cpu time    0.01: real time    0.01
    --------------------------------------------
      LOOP:  cpu time  159.08: real time  175.41

 eigenvalue-minimisations  : 18528
 total energy-change (2. order) : 0.5360400E+02  (-0.6522440E+01)
 number of electron     575.9999997 magnetization 
 augmentation part       -1.8512349 magnetization 

 Broyden mixing:
  rms(total) = 0.25875E+01    rms(broyden)= 0.25874E+01
  rms(prec ) = 0.28989E+01
  weight for this iteration     100.00

 eigenvalues of (default mixing * dielectric matrix)
  average eigenvalue GAMMA=   2.1507
  2.1507

 Free energy of the ion-electron system (eV)
  ---------------------------------------------------
  alpha Z        PSCENC =      1758.97540412
  Ewald energy   TEWEN  =    -15374.85448776
  -1/2 Hartree   DENC   =     -2001.14846704
  -exchange  EXHF       =         0.00000000
  -V(xc)+E(xc)   XCENC  =      1406.29580508
  PAW double counting   =     21637.33888176   -21480.87052898
  entropy T*S    EENTRO =         0.09008617
  eigenvalues    EBANDS =      -905.59534353
  atomic energy  EATOM  =     13663.32686481
  ---------------------------------------------------
  free energy    TOTEN  =     -1296.44178539 eV

  energy without entropy =    -1296.53187156  energy(sigma->0) =    -1296.47181411


--------------------------------------------------------------------------------------------------------




----------------------------------------- Iteration    1(   7)  ---------------------------------------


    POTLOK:  cpu time    0.19: real time    0.24
    SETDIJ:  cpu time    0.06: real time    0.06
    EDDIAG:  cpu time   35.86: real time   37.36
  RMM-DIIS:  cpu time  114.27: real time  124.78
    ORTHCH:  cpu time   12.04: real time   13.84
       DOS:  cpu time    0.02: real time    0.02
    CHARGE:  cpu time    6.75: real time    7.59
    MIXING:  cpu time    0.01: real time    0.01
    --------------------------------------------
      LOOP:  cpu time  169.20: real time  183.92

 eigenvalue-minimisations  : 18528
 total energy-change (2. order) : 0.1393376E+02  (-0.4836183E+01)
 number of electron     575.9999998 magnetization 
 augmentation part       -2.0732646 magnetization 

 Broyden mixing:
  rms(total) = 0.60915E+00    rms(broyden)= 0.60903E+00
  rms(prec ) = 0.68417E+00
  weight for this iteration     100.00

 eigenvalues of (default mixing * dielectric matrix)
  average eigenvalue GAMMA=   1.9322
  1.5128  2.3515

 Free energy of the ion-electron system (eV)
  ---------------------------------------------------
  alpha Z        PSCENC =      1758.97540412
  Ewald energy   TEWEN  =    -15374.85448776
  -1/2 Hartree   DENC   =     -2298.59174461
  -exchange  EXHF       =         0.00000000
  -V(xc)+E(xc)   XCENC  =      1426.61672526
  PAW double counting   =     46589.64686647   -46440.70468855
  entropy T*S    EENTRO =         0.07455905
  eigenvalues    EBANDS =      -606.99752012
  atomic energy  EATOM  =     13663.32686481
  ---------------------------------------------------
  free energy    TOTEN  =     -1282.50802134 eV

  energy without entropy =    -1282.58258039  energy(sigma->0) =    -1282.53287436


--------------------------------------------------------------------------------------------------------




----------------------------------------- Iteration    1(   8)  ---------------------------------------


    POTLOK:  cpu time    0.19: real time    0.21
    SETDIJ:  cpu time    0.06: real time    0.06
    EDDIAG:  cpu time   36.92: real time   38.83
  RMM-DIIS:  cpu time  103.58: real time  111.25
    ORTHCH:  cpu time   11.86: real time   12.31
       DOS:  cpu time    0.02: real time    0.02
    CHARGE:  cpu time    7.15: real time    7.16
    MIXING:  cpu time    0.01: real time    0.01
    --------------------------------------------
      LOOP:  cpu time  159.80: real time  169.86

 eigenvalue-minimisations  : 18528
 total energy-change (2. order) : 0.4412934E+00  (-0.2345766E+00)
 number of electron     575.9999998 magnetization 
 augmentation part       -2.0872243 magnetization 

 Broyden mixing:
  rms(total) = 0.14791E+00    rms(broyden)= 0.14788E+00
  rms(prec ) = 0.16852E+00
  weight for this iteration     100.00

 eigenvalues of (default mixing * dielectric matrix)
  average eigenvalue GAMMA=   1.7941
  2.4841  1.3689  1.5295

 Free energy of the ion-electron system (eV)
  ---------------------------------------------------
  alpha Z        PSCENC =      1758.97540412
  Ewald energy   TEWEN  =    -15374.85448776
  -1/2 Hartree   DENC   =     -2321.85879524
  -exchange  EXHF       =         0.00000000
  -V(xc)+E(xc)   XCENC  =      1429.87426632
  PAW double counting   =     54033.35785956   -53885.01759743
  entropy T*S    EENTRO =         0.07799636
  eigenvalues    EBANDS =      -585.94823862
  atomic energy  EATOM  =     13663.32686481
  ---------------------------------------------------
  free energy    TOTEN  =     -1282.06672790 eV

  energy without entropy =    -1282.14472426  energy(sigma->0) =    -1282.09272669


--------------------------------------------------------------------------------------------------------




----------------------------------------- Iteration    1(   9)  ---------------------------------------


    POTLOK:  cpu time    0.70: real time    0.70
    SETDIJ:  cpu time    0.07: real time    0.07
    EDDIAG:  cpu time   35.53: real time   35.60
  RMM-DIIS:  cpu time  103.51: real time  106.63
    ORTHCH:  cpu time   12.41: real time   12.54
       DOS:  cpu time    0.02: real time    0.02
    CHARGE:  cpu time    7.67: real time    7.68
    MIXING:  cpu time    0.01: real time    0.01
    --------------------------------------------
      LOOP:  cpu time  159.94: real time  163.26

 eigenvalue-minimisations  : 18657
 total energy-change (2. order) :-0.7329643E-02  (-0.1359562E-01)
 number of electron     575.9999998 magnetization 
 augmentation part       -2.0965948 magnetization 

 Broyden mixing:
  rms(total) = 0.60952E-01    rms(broyden)= 0.60947E-01
  rms(prec ) = 0.68276E-01
  weight for this iteration     100.00

 eigenvalues of (default mixing * dielectric matrix)
  average eigenvalue GAMMA=   1.7111
  2.3639  2.1567  1.0201  1.3038

 Free energy of the ion-electron system (eV)
  ---------------------------------------------------
  alpha Z        PSCENC =      1758.97540412
  Ewald energy   TEWEN  =    -15374.85448776
  -1/2 Hartree   DENC   =     -2324.26241781
  -exchange  EXHF       =         0.00000000
  -V(xc)+E(xc)   XCENC  =      1430.31556312
  PAW double counting   =     55460.97999869   -55312.55373130
  entropy T*S    EENTRO =         0.07769222
  eigenvalues    EBANDS =      -584.07894363
  atomic energy  EATOM  =     13663.32686481
  ---------------------------------------------------
  free energy    TOTEN  =     -1282.07405754 eV

  energy without entropy =    -1282.15174976  energy(sigma->0) =    -1282.09995495


--------------------------------------------------------------------------------------------------------




----------------------------------------- Iteration    1(  10)  ---------------------------------------


    POTLOK:  cpu time    0.24: real time    0.25
    SETDIJ:  cpu time    0.09: real time    0.09
    EDDIAG:  cpu time   33.91: real time   35.95
  RMM-DIIS:  cpu time   99.28: real time  104.60
    ORTHCH:  cpu time   11.45: real time   12.15
       DOS:  cpu time    0.02: real time    0.02
    CHARGE:  cpu time    6.74: real time    7.35
    MIXING:  cpu time    0.01: real time    0.01
    --------------------------------------------
      LOOP:  cpu time  151.73: real time  160.44

 eigenvalue-minimisations  : 18576
 total energy-change (2. order) :-0.7106809E-02  (-0.3018509E-02)
 number of electron     575.9999998 magnetization 
 augmentation part       -2.0949170 magnetization 

 Broyden mixing:
  rms(total) = 0.19695E-01    rms(broyden)= 0.19693E-01
  rms(prec ) = 0.22976E-01
  weight for this iteration     100.00

 eigenvalues of (default mixing * dielectric matrix)
  average eigenvalue GAMMA=   1.6837
  2.4177  2.2676  0.9334  1.4000  1.4000

 Free energy of the ion-electron system (eV)
  ---------------------------------------------------
  alpha Z        PSCENC =      1758.97540412
  Ewald energy   TEWEN  =    -15374.85448776
  -1/2 Hartree   DENC   =     -2321.11021285
  -exchange  EXHF       =         0.00000000
  -V(xc)+E(xc)   XCENC  =      1430.20616648
  PAW double counting   =     55721.04593009   -55572.44401043
  entropy T*S    EENTRO =         0.07810833
  eigenvalues    EBANDS =      -587.30492712
  atomic energy  EATOM  =     13663.32686481
  ---------------------------------------------------
  free energy    TOTEN  =     -1282.08116435 eV

  energy without entropy =    -1282.15927268  energy(sigma->0) =    -1282.10720046


--------------------------------------------------------------------------------------------------------




----------------------------------------- Iteration    1(  11)  ---------------------------------------


    POTLOK:  cpu time    0.30: real time    0.30
    SETDIJ:  cpu time    0.06: real time    0.06
    EDDIAG:  cpu time   33.22: real time   38.07
  RMM-DIIS:  cpu time   96.46: real time  102.34
    ORTHCH:  cpu time    9.92: real time   10.90
       DOS:  cpu time    0.02: real time    0.02
    CHARGE:  cpu time    6.80: real time    6.94
    MIXING:  cpu time    0.01: real time    0.01
    --------------------------------------------
      LOOP:  cpu time  146.81: real time  158.66

 eigenvalue-minimisations  : 18528
 total energy-change (2. order) :-0.2323809E-02  (-0.4852260E-03)
 number of electron     575.9999998 magnetization 
 augmentation part       -2.0938304 magnetization 

 Broyden mixing:
  rms(total) = 0.63598E-02    rms(broyden)= 0.63589E-02
  rms(prec ) = 0.82239E-02
  weight for this iteration     100.00

 eigenvalues of (default mixing * dielectric matrix)
  average eigenvalue GAMMA=   1.6772
  2.5143  2.3757  1.7338  0.9466  1.2463  1.2463

 Free energy of the ion-electron system (eV)
  ---------------------------------------------------
  alpha Z        PSCENC =      1758.97540412
  Ewald energy   TEWEN  =    -15374.85448776
  -1/2 Hartree   DENC   =     -2321.45403952
  -exchange  EXHF       =         0.00000000
  -V(xc)+E(xc)   XCENC  =      1430.23494800
  PAW double counting   =     55807.72906475   -55659.08553877
  entropy T*S    EENTRO =         0.07832899
  eigenvalues    EBANDS =      -587.03403277
  atomic energy  EATOM  =     13663.32686481
  ---------------------------------------------------
  free energy    TOTEN  =     -1282.08348816 eV

  energy without entropy =    -1282.16181715  energy(sigma->0) =    -1282.10959783


--------------------------------------------------------------------------------------------------------




----------------------------------------- Iteration    1(  12)  ---------------------------------------


    POTLOK:  cpu time    0.23: real time    0.23
    SETDIJ:  cpu time    0.06: real time    0.06
    EDDIAG:  cpu time   36.12: real time   36.14
  RMM-DIIS:  cpu time  108.20: real time  110.13
    ORTHCH:  cpu time   11.25: real time   12.22
       DOS:  cpu time    0.02: real time    0.02
    CHARGE:  cpu time    8.02: real time    8.85
    MIXING:  cpu time    0.01: real time    0.01
    --------------------------------------------
      LOOP:  cpu time  163.91: real time  167.67

 eigenvalue-minimisations  : 18545
 total energy-change (2. order) :-0.4631999E-03  (-0.1129449E-03)
 number of electron     575.9999998 magnetization 
 augmentation part       -2.0941156 magnetization 

 Broyden mixing:
  rms(total) = 0.28689E-02    rms(broyden)= 0.28684E-02
  rms(prec ) = 0.35724E-02
  weight for this iteration     100.00

 eigenvalues of (default mixing * dielectric matrix)
  average eigenvalue GAMMA=   1.6821
  2.5273  2.5273  1.7736  1.7736  0.9450  1.1138  1.1138

 Free energy of the ion-electron system (eV)
  ---------------------------------------------------
  alpha Z        PSCENC =      1758.97540412
  Ewald energy   TEWEN  =    -15374.85448776
  -1/2 Hartree   DENC   =     -2322.02103989
  -exchange  EXHF       =         0.00000000
  -V(xc)+E(xc)   XCENC  =      1430.26880585
  PAW double counting   =     55817.24698765   -55668.59859509
  entropy T*S    EENTRO =         0.07824793
  eigenvalues    EBANDS =      -586.50613898
  atomic energy  EATOM  =     13663.32686481
  ---------------------------------------------------
  free energy    TOTEN  =     -1282.08395136 eV

  energy without entropy =    -1282.16219929  energy(sigma->0) =    -1282.11003401


--------------------------------------------------------------------------------------------------------




----------------------------------------- Iteration    1(  13)  ---------------------------------------


    POTLOK:  cpu time    0.20: real time    0.23
    SETDIJ:  cpu time    0.06: real time    0.06
    EDDIAG:  cpu time   35.55: real time   40.93
  RMM-DIIS:  cpu time  111.12: real time  119.14
    ORTHCH:  cpu time   11.48: real time   11.85
       DOS:  cpu time    0.02: real time    0.02
    CHARGE:  cpu time    8.73: real time    8.74
    MIXING:  cpu time    0.01: real time    0.01
    --------------------------------------------
      LOOP:  cpu time  167.19: real time  181.01

 eigenvalue-minimisations  : 18529
 total energy-change (2. order) :-0.9032094E-04  (-0.1630303E-04)
 number of electron     575.9999998 magnetization 
 augmentation part       -2.0940054 magnetization 

 Broyden mixing:
  rms(total) = 0.10399E-02    rms(broyden)= 0.10398E-02
  rms(prec ) = 0.13143E-02
  weight for this iteration     100.00

 eigenvalues of (default mixing * dielectric matrix)
  average eigenvalue GAMMA=   1.6938
  2.9489  2.4278  2.1390  1.6033  1.2770  1.2770  0.9387  0.9387

 Free energy of the ion-electron system (eV)
  ---------------------------------------------------
  alpha Z        PSCENC =      1758.97540412
  Ewald energy   TEWEN  =    -15374.85448776
  -1/2 Hartree   DENC   =     -2322.07768673
  -exchange  EXHF       =         0.00000000
  -V(xc)+E(xc)   XCENC  =      1430.27720706
  PAW double counting   =     55804.50058810   -55655.85116783
  entropy T*S    EENTRO =         0.07824043
  eigenvalues    EBANDS =      -586.45900388
  atomic energy  EATOM  =     13663.32686481
  ---------------------------------------------------
  free energy    TOTEN  =     -1282.08404168 eV

  energy without entropy =    -1282.16228212  energy(sigma->0) =    -1282.11012183


--------------------------------------------------------------------------------------------------------




----------------------------------------- Iteration    1(  14)  ---------------------------------------


    POTLOK:  cpu time    0.22: real time    0.22
    SETDIJ:  cpu time    0.06: real time    0.06
    EDDIAG:  cpu time   34.41: real time   34.46
  RMM-DIIS:  cpu time  113.60: real time  118.17
    ORTHCH:  cpu time   10.39: real time   11.61
       DOS:  cpu time    0.02: real time    0.02
    CHARGE:  cpu time    7.17: real time    8.43
    MIXING:  cpu time    0.03: real time    0.03
    --------------------------------------------
      LOOP:  cpu time  165.91: real time  173.01

 eigenvalue-minimisations  : 18529
 total energy-change (2. order) :-0.2730581E-04  (-0.4806773E-05)
 number of electron     575.9999998 magnetization 
 augmentation part       -2.0940298 magnetization 

 Broyden mixing:
  rms(total) = 0.39437E-03    rms(broyden)= 0.39430E-03
  rms(prec ) = 0.54813E-03
  weight for this iteration     100.00

 eigenvalues of (default mixing * dielectric matrix)
  average eigenvalue GAMMA=   1.6827
  3.0501  2.4732  1.9974  1.7091  1.7091  1.1507  1.1507  0.9342  0.9701

 Free energy of the ion-electron system (eV)
  ---------------------------------------------------
  alpha Z        PSCENC =      1758.97540412
  Ewald energy   TEWEN  =    -15374.85448776
  -1/2 Hartree   DENC   =     -2322.24971328
  -exchange  EXHF       =         0.00000000
  -V(xc)+E(xc)   XCENC  =      1430.28850911
  PAW double counting   =     55801.29933010   -55652.65131740
  entropy T*S    EENTRO =         0.07823336
  eigenvalues    EBANDS =      -586.29689205
  atomic energy  EATOM  =     13663.32686481
  ---------------------------------------------------
  free energy    TOTEN  =     -1282.08406899 eV

  energy without entropy =    -1282.16230235  energy(sigma->0) =    -1282.11014678


--------------------------------------------------------------------------------------------------------




----------------------------------------- Iteration    1(  15)  ---------------------------------------


    POTLOK:  cpu time    0.54: real time    0.54
    SETDIJ:  cpu time    0.15: real time    0.15
    EDDIAG:  cpu time   36.89: real time   36.93
  RMM-DIIS:  cpu time   89.32: real time   95.34
    ORTHCH:  cpu time   10.80: real time   12.14
       DOS:  cpu time    0.02: real time    0.02
    CHARGE:  cpu time    7.31: real time    8.40
    MIXING:  cpu time    0.01: real time    0.02
    --------------------------------------------
      LOOP:  cpu time  145.05: real time  153.54

 eigenvalue-minimisations  : 16928
 total energy-change (2. order) :-0.1310393E-05  (-0.7037007E-06)
 number of electron     575.9999998 magnetization 
 augmentation part       -2.0940820 magnetization 

 Broyden mixing:
  rms(total) = 0.15853E-03    rms(broyden)= 0.15847E-03
  rms(prec ) = 0.21684E-03
  weight for this iteration     100.00

 eigenvalues of (default mixing * dielectric matrix)
  average eigenvalue GAMMA=   1.6887
  3.1917  2.4641  2.0826  2.0826  1.4934  1.4934  1.0839  1.0839  0.9184  0.9926

 Free energy of the ion-electron system (eV)
  ---------------------------------------------------
  alpha Z        PSCENC =      1758.97540412
  Ewald energy   TEWEN  =    -15374.85448776
  -1/2 Hartree   DENC   =     -2322.27253051
  -exchange  EXHF       =         0.00000000
  -V(xc)+E(xc)   XCENC  =      1430.28959042
  PAW double counting   =     55799.99886014   -55651.35066862
  entropy T*S    EENTRO =         0.07823318
  eigenvalues    EBANDS =      -586.27533608
  atomic energy  EATOM  =     13663.32686481
  ---------------------------------------------------
  free energy    TOTEN  =     -1282.08407030 eV

  energy without entropy =    -1282.16230348  energy(sigma->0) =    -1282.11014803


--------------------------------------------------------------------------------------------------------




----------------------------------------- Iteration    1(  16)  ---------------------------------------


[...]
   -.134E+02 -.562E+01 0.140E+02   0.146E+02 0.776E+01 -.105E+02   -.121E+01 -.213E+01 -.345E+01   -.442E-04 -.158E-05 0.558E-04
   0.185E+02 -.297E+02 -.528E+01   -.176E+02 0.273E+02 0.402E+01   -.817E+00 0.244E+01 0.119E+01   0.114E-03 -.556E-04 -.111E-03
   0.921E+01 0.783E+01 -.770E+01   -.954E+01 -.745E+01 0.768E+01   0.417E+00 -.402E+00 -.916E-03   0.246E-03 0.149E-03 -.104E-03
   -.371E+02 0.173E+02 -.281E+02   0.367E+02 -.175E+02 0.266E+02   0.482E+00 0.328E+00 0.154E+01   -.949E-05 -.209E-03 -.473E-04
   -.346E+02 -.193E+02 0.179E+02   0.333E+02 0.189E+02 -.170E+02   0.118E+01 0.491E+00 -.761E+00   -.200E-04 0.122E-03 0.234E-03
 -----------------------------------------------------------------------------------------------
   -.138E+02 -.441E+01 -.450E+01   -.512E-12 -.316E-12 -.188E-12   0.137E+02 0.439E+01 0.453E+01   0.113E-02 0.982E-04 -.299E-03
 
 
 POSITION                                       TOTAL-FORCE (eV/Angst)
 -----------------------------------------------------------------------------------
      8.87299      7.40760      1.92709         0.025145     -0.013973     -0.009371
      2.68618      8.82212     12.43128        -0.001161     -0.018876     -0.053047
      1.28973      2.60936      8.86097         0.025463     -0.018939      0.000297
      7.52542      1.26893      5.24449         0.002859      0.005373      0.005071
      2.45540      3.78253     12.28774        -0.004315      0.010610      0.035274
      6.39364      2.49354      8.75855         0.004320      0.008574      0.009788
      7.78582      6.36920      5.26644         0.002495     -0.015061      0.000908
      3.78120      7.74312      1.60361        -0.018841      0.017151     -0.001754
      9.85514      6.34003      3.01517        -0.008154      0.021057      0.027112
      3.80358      9.80960     13.53572        -0.002257     -0.014530     -0.018254
      0.39427      3.77548      9.99395         0.012248      0.010444     -0.021235
      6.39918      0.42040      6.45645        -0.000574      0.017668     -0.020931
      1.35489      4.66335     11.13802        -0.004708      0.012145     -0.004207
      5.51126      1.38383      7.59982         0.003036     -0.008326     -0.000166
      8.89636      5.41773      4.09389        -0.008107     -0.014645      0.021640
      4.75261      8.82279      0.52304         0.031616     -0.015824     -0.031908
      9.77574      8.21206      3.27409        -0.041099     -0.009339     -0.000676
      1.94353      9.67715     13.81114         0.026127     -0.020020     -0.021099
      0.42561      1.92628     10.27483         0.003991      0.025444      0.004724
      8.23413      0.44641      6.71754        -0.006961      0.026812     -0.009359
      3.15570      4.64385     10.84912        -0.003370     -0.036966      0.003241
      5.49375      3.17473      7.29216         0.002887      0.009026      0.003965
      7.07889      5.54604      3.81361        -0.065926     -0.059371     -0.022432
      4.65520      6.94993      0.25417        -0.000868     -0.007932     -0.022215
      9.74048      8.98723      1.65671        -0.013641     -0.012171     -0.002127
      1.08818      9.67411     12.23408         0.005955      0.001272     -0.023104
      0.37117      1.04227      8.70871        -0.001077     -0.014147      0.007012
      9.11508      0.37035      5.12443         0.019330      0.013305     -0.017161
      3.99255      4.69892     12.42378        -0.011679     -0.007078      0.008167
      5.46568      4.03127      8.85891        -0.011864      0.004784     -0.013181
      6.18546      5.51825      5.37386        -0.004212     -0.018179     -0.000770
      4.64836      6.16680      1.87001        -0.020067      0.033786     -0.057226
      9.90455      6.05097      1.21413        -0.014978     -0.003189      0.027897
      4.01896      9.86661     11.74947         0.001928      0.012529     -0.025625
      0.36956      3.91822      8.10362        -0.004826      0.002191     -0.004278
      6.21184      0.32159      4.55329         0.001123      0.000110     -0.013901
      1.13986      4.74411     13.01860        -0.006849      0.031393     -0.002083
      5.42682      1.19323      9.49539         0.020383     -0.000641     -0.020515
      9.10882      5.29727      5.88914         0.000882     -0.006784      0.004922
      4.82178      9.10267      2.32058         0.041053     -0.022104     -0.026521
      9.72034      7.68309      0.44099        -0.033645     -0.015481      0.005561
      2.34847      9.71444     11.00377        -0.006687      0.031753     -0.040284
      0.39073      2.20694      7.42947        -0.016449     -0.024462     -0.009129
      7.91785      0.30659      3.86315        -0.006569     -0.001865      0.020127
      2.80855      4.76028     13.70085        -0.004544      0.016933     -0.001829
      5.41915      2.89634     10.16780        -0.007648     -0.001395     -0.018946
      7.39675      5.41102      6.64276        -0.004622     -0.014715     -0.022872
      4.64732      7.46776      3.08977        -0.012121      0.027255     -0.039167
      1.12603      7.32476      3.47365        -0.021786      0.020099      0.019926
      2.83483      1.15854     14.04335         0.008892     -0.015758      0.006104
      9.05748      2.88645     10.50435         0.025819      0.007600      0.007398
      7.31577      9.03393      6.98040         0.011795      0.020944      0.015642
      2.23991      6.14415     10.63561         0.012497     -0.019739     -0.006523
      3.98363      2.21218      7.09044         0.012489      0.004930     -0.006098
      7.95354      3.95295      3.54482         0.000878     -0.016458      0.010542
      6.17361      7.83659      0.03351         0.025303     -0.020183      0.008295
      1.10686      8.98501      2.66255        -0.050055      0.028916      0.038520
      1.12296      1.13459     13.25376        -0.002016     -0.001628      0.024085
      9.04644      1.13266      9.78382         0.007429      0.021856      0.012821
      9.05469      9.02667      6.24219         0.010482      0.002885      0.006344
      3.94148      6.17438     11.38282         0.001354     -0.038160     -0.021355
      3.95928      3.94492      7.83378         0.008087     -0.011267     -0.010305
      6.20803      3.99987      4.33010        -0.009922     -0.005246      0.002963
      6.15323      6.16447      0.83699         0.006783     -0.004188     -0.004771
      1.25155      6.07012      2.22511        -0.026254     -0.001581      0.029481
      4.04516      1.30764     12.73999         0.003142     -0.001363      0.002769
      8.98786      4.08195      9.17143        -0.010455      0.001102      0.010805
      6.10447      8.94886      5.67799         0.008110     -0.006311      0.012337
      1.00582      6.21990     11.93321        -0.001999      0.016371     -0.018676
      3.95158      1.01043      8.42084        -0.002194     -0.001093     -0.013775
      9.15453      3.82788      4.84471         0.000915     -0.022638      0.006937
      6.31336      9.09172      1.29430         0.022025     -0.030275     -0.003502
      1.12372      6.90839      0.69148        -0.020381     -0.005862      0.041814
      3.15657      1.18969     11.23181        -0.016150      0.028380      0.023963
      9.02302      3.12794      7.69154         0.005176     -0.006679      0.015305
      7.07047      8.88860      4.16100        -0.024312      0.005153      0.011820
      1.94220      6.25487     13.44702         0.046398      0.060826     -0.015931
      3.94060      1.98154      9.93022        -0.012996      0.007018     -0.029974
      8.21593      3.89636      6.37591        -0.019473     -0.034981     -0.012874
      6.21070      8.24160      2.82892         0.012326     -0.019513     -0.004425
      1.08742      8.66654      0.91033        -0.045552     -0.007214      0.020849
      1.42563      1.14417     11.47105         0.009371      0.041320      0.002558
      8.99410      1.41622      7.97707        -0.027225      0.005334      0.003938
      8.79954      8.92205      4.45228        -0.032770     -0.006292      0.012145
      3.68998      6.23602     13.16506         0.011545      0.018762     -0.025465
      3.91468      3.73128      9.63970        -0.010517     -0.006939      0.000523
      6.44348      3.95741      6.12450        -0.005736     -0.024439      0.011405
      6.14544      6.47749      2.59227         0.008308     -0.049577      0.041224
      2.06028      7.65697      1.97583        -0.022997      0.008869      0.059064
      2.46155      2.10413     12.56855        -0.000172      0.006390      0.028939
      8.07763      2.49767      9.04429         0.004815      0.009076      0.009633
      7.71981      8.04177      5.53285         0.012060      0.006682      0.029610
      2.59804      7.13254     12.10992         0.023445     -0.011362     -0.030534
      3.03445      2.59427      8.59877        -0.000279     -0.016879     -0.009071
      7.53983      3.03123      5.04041        -0.005403     -0.021187      0.007202
      7.12133      7.49825      1.49289        -0.026220     -0.015726      0.026155
      3.23232      5.74419      5.07669        -0.014838     -0.004158     -0.008506
      4.51068      3.22582      1.60944         0.013717      0.009458     -0.003484
      7.05882      4.68980     12.31901        -0.016795     -0.034519     -0.012459
      5.60488      7.02362      8.70148         0.024688      0.028178     -0.027294
      0.54413      8.16054      8.92679         0.016251     -0.009189      0.013544
      1.99377      0.41380      5.26194        -0.003608      0.034621      0.022984
      9.59649      1.83098      1.88715        -0.012107      0.006963      0.007694
      8.30600      9.45165     12.53144        -0.012018      0.015879     -0.019530
      3.88321      7.32373      4.57539        -0.003632     -0.005032      0.001626
      3.06392      3.98084      1.09493        -0.039270     -0.013056      0.004689
      6.21777      3.24891     11.61213        -0.003985     -0.027641      0.013686
      7.18463      6.27536      8.06634         0.025557      0.022186      0.015491
      2.12940      8.89390      9.55582         0.007322      0.008253      0.007240
      1.16704      1.86264      5.96779         0.023790      0.035446     -0.009708
      8.14619      1.08268      2.40597        -0.025268      0.025336     -0.013380
      8.94822      7.86740     13.03607         0.009995      0.018563      0.011480
      2.09370      7.12307      4.83012        -0.001927      0.018992      0.013248
      3.09781      2.15263      1.30358        -0.002061     -0.007103      0.002245
      8.06775      3.20943     11.87626         0.006231     -0.013722      0.000130
      7.03948      8.11134      8.37375         0.022838      0.019548      0.000118
      1.96924      7.07251      9.24462         0.012036     -0.020349     -0.009056
      3.00074      1.89302      5.71477         0.021119      0.022924     -0.004960
      8.19869      2.91652      2.20064        -0.022282      0.006262      0.009794
      7.16370      8.07935     12.76967        -0.019856      0.002907     -0.003983
      4.74327      6.30783      5.77691         0.001829     -0.004213     -0.008635
      3.97169      4.72647      2.33297        -0.036885     -0.023982     -0.004755
      5.44506      4.06870     12.91415        -0.008901     -0.034743      0.006308
      6.21470      5.44968      9.30738        -0.020174      0.012263     -0.045312
      1.16482      9.72831      8.32507        -0.003275      0.000052      0.017086
      0.38537      1.04679      4.66786         0.010202      0.010897     -0.005081
      9.04455      0.33160      1.16461        -0.028449      0.025561      0.020869
      9.81817      8.87299     11.83927        -0.007334      0.024656     -0.024629
      4.65757      8.11035      5.94452         0.009653     -0.012178     -0.006719
      2.17001      4.68800      2.47615        -0.007980     -0.011070     -0.019043
      5.44857      2.25890     12.97440         0.008546     -0.017619      0.003221
      8.04825      5.48773      9.39951        -0.042159     -0.016903      0.025524
      2.99139      9.70029      8.22468        -0.013722      0.014455     -0.015994
      0.38580      2.85045      4.61243         0.017659      0.017596      0.003932
      7.24173      0.38303      1.03120        -0.005895     -0.006520      0.006807
      9.72956      7.07313     11.67332         0.005187      0.001933     -0.010093
      1.92162      6.03083      6.26503        -0.009088      0.009009      0.016743
      4.06217      1.92135      2.78705         0.004552      0.027386     -0.015526
      8.30674      4.22716     13.40423         0.007556     -0.013842     -0.027020
      5.92060      8.29010      9.85632         0.004634      0.004634      0.015380
      0.85525      6.89653      7.75947        -0.024056      0.016617     -0.006931
      3.24358      0.88723      4.17773         0.005016     -0.036416      0.008546
      9.16445      3.13613      0.71574         0.017172     -0.022066      0.000364
      7.00182      9.18626     11.34128        -0.020915     -0.008178     -0.018384
      2.69142      6.79698      7.69236         0.013827     -0.004292      0.013435
      3.24009      2.74680      4.21646         0.013212     -0.004494     -0.008834
      7.41377      3.24277      0.66746         0.004930     -0.001480     -0.017908
      6.78549      7.45187     11.20194         0.030813     -0.025610      0.011773
      1.71164      7.75195      6.40601         0.003802      0.016553      0.003185
      2.32786      1.82701      2.84011         0.027319     -0.003518      0.014648
      8.31570      2.36469     13.37235         0.013135     -0.010898      0.011703
      7.77108      8.39630      9.91918         0.018202      0.027861     -0.003554
      3.52415      5.46826      6.92414         0.003301     -0.003837     -0.004451
      4.70175      3.51671      3.47680        -0.008773      0.015297     -0.017242
      6.60577      4.70207      0.01489         0.006517     -0.005812     -0.011764
      5.43437      6.61604     10.48438        -0.017460     -0.013567     -0.029793
      0.37045      8.58202      7.14627         0.000101      0.005606     -0.004283
      1.53602      0.35908      3.48218         0.028982     -0.004664      0.013756
      9.77132      1.54272      0.01868        -0.004560     -0.018314      0.015056
      8.62724      9.70848     10.68976        -0.006941      0.003623     -0.004887
      4.42582      7.02517      7.41424         0.017617      0.008695     -0.011708
      3.18749      4.50684      3.92833        -0.013949     -0.000428     -0.020172
      5.66946      3.17308      0.39428         0.016385     -0.000433     -0.002600
      7.00880      5.72629     10.89244        -0.053891     -0.026897      0.002832
      1.94471      9.47078      6.72976        -0.016879     -0.002023     -0.002311
      0.59209      1.89179      3.10819         0.039908      0.015509     -0.021702
      8.25908      0.60295     13.65178        -0.005421     -0.007146      0.015596
      9.51551      8.15548     10.20012        -0.005224     -0.013017      0.001065
      3.40880      8.48057      7.06923         0.012149      0.000953      0.006015
      1.69192      3.36932      3.54656         0.017860      0.011371      0.001397
      6.76744      1.74404     14.03699        -0.005523     -0.014462      0.006546
      8.48457      6.71294     10.54332        -0.040673     -0.017923      0.005635
      0.32800      5.48765      6.97891        -0.009421      0.000553     -0.007882
      4.66837      0.37147      3.41704        -0.027715     -0.025013     -0.029032
      9.72061      4.71450      0.07409         0.013882     -0.003126      0.028782
      5.37872      9.68681     10.62809         0.010154      0.013677     -0.005079
      2.89914      8.60082      5.41787         0.040263     -0.019718      0.018306
      1.69238      3.16361      1.68922         0.038199     -0.034869      0.046887
      6.98526      1.82073     12.20219         0.020917     -0.009226      0.013545
      8.42359      7.16535      8.91238         0.002195     -0.005990      0.025658
      3.37530      8.00612      8.70166        -0.001244      0.000808     -0.008538
      1.92856      3.28842      5.38194         0.027508      0.006527     -0.015344
      6.78502      1.91989      1.81274        -0.008640     -0.006940     -0.015907
      7.96970      6.59416     12.19243         0.010837      0.030471     -0.003079
      1.48773      4.39318      6.54072        -0.007410      0.049059      0.032204
      5.69851      1.60211      3.00591        -0.001099     -0.068576     -0.038515
      0.63697      3.55516      0.48626        -0.017870      0.032524      0.003654
      6.44730      0.73180     11.06819         0.003238      0.006208      0.020301
      2.27510      2.35927     10.32080         0.021829     -0.006084     -0.069459
      8.27748      2.17745      6.45135         0.090458     -0.030146     -0.024404
      7.55024      7.24065      3.16611         0.106107      0.124678      0.035680
      2.48297      7.81377      0.16802        -0.057630      0.076874      0.144357
 -----------------------------------------------------------------------------------
    total drift:                               -0.036880     -0.016734      0.023935


--------------------------------------------------------------------------------------------------------



  FREE ENERGIE OF THE ION-ELECTRON SYSTEM (eV)
  ---------------------------------------------------
  free  energy   TOTEN  =     -1282.257805 eV

  energy  without entropy=    -1282.330847  energy(sigma->0) =    -1282.282153
 
 d Force = 0.1501972E-01[ 0.902E-02, 0.210E-01]  d Energy = 0.1507212E-01-0.524E-04
 d Force = 0.1308007E+01[ 0.128E+01, 0.133E+01]  d Ewald  = 0.9067094E+00 0.401E+00


--------------------------------------------------------------------------------------------------------


    POTLOK:  cpu time    0.26: real time    0.26


--------------------------------------------------------------------------------------------------------


 Conjugate gradient step on ions:
 trial-energy change:   -0.015072  1 .order   -0.015043   -0.021082   -0.009004
  (g-gl).g = 0.130E-01      g.g   = 0.159E-01  gl.gl    = 0.246E-01
 g(Force)  = 0.157E-01   g(Stress)= 0.136E-03 ortho     = 0.219E-02
 gamma     =   0.53050
 trial     =   1.23878
 opt step  =   2.16229  (harmonic =   2.16229) maximal distance =0.02841173
 next E    = -1282.261133   (d E  =  -0.01840)


--------------------------------------------------------------------------------------------------------


     LOOP+:  cpu time 1445.55: real time 1532.65
    4ORBIT:  cpu time    0.00: real time    0.00

 total amount of memory used by VASP on root node   822742. kBytes
========================================================================

   base      :      30000. kBytes
   nonlr-proj:      13904. kBytes
   fftplans  :      12299. kBytes
   grid      :      17270. kBytes
   one-center:        294. kBytes
   wavefun   :     748975. kBytes
 
  
  
 General timing and accounting informations for this job:
 ========================================================
  
                  Total CPU time used (sec):    15309.906
                            User time (sec):    15233.399
                          System time (sec):       76.507
                         Elapsed time (sec):    16413.304
  
                   Maximum memory used (kb):     2312808.
                   Average memory used (kb):           0.
  
                          Minor page faults:      1060738
                          Major page faults:            5
                 Voluntary context switches:         3222
