 vasp.5.2.12 26May11 complex 
 executed on             LinuxIFC date 2012.05.25  11:41:42
 running on    4 nodes
 distr:  one band on    1 nodes,    4 groups


--------------------------------------------------------------------------------------------------------


 INCAR:
 POTCAR:    PAW_PBE B 06Sep2000                   
 POTCAR:    PAW_PBE B 06Sep2000                   
   VRHFIN =B: s2p1                                                              
   LEXCH  = PE                                                                  
   EATOM  =    71.1703 eV,    5.2309 Ry                                         
                                                                                
   TITEL  = PAW_PBE B 06Sep2000                                                 
   LULTRA =        F    use ultrasoft PP ?                                      
   IUNSCR =        1    unscreen: 0-lin 1-nonlin 2-no                           
   RPACOR =    1.200    partial core radius                                     
   POMASS =   10.811; ZVAL   =    3.000    mass and valenz                      
   RCORE  =    1.700    outmost cutoff radius                                   
   RWIGS  =    1.710; RWIGS  =    0.905    wigner-seitz radius (au A)           
   ENMAX  =  318.614; ENMIN  =  238.960 eV                                      
   ICORE  =        2    local potential                                         
   LCOR   =        T    correct aug charges                                     
   LPAW   =        T    paw PP                                                  
   EAUG   =  535.514                                                            
   DEXC   =    0.000                                                            
   RMAX   =    1.732    core radius for proj-oper                               
   RAUG   =    1.300    factor for augmentation sphere                          
   RDEP   =    1.757    radius for radial grids                                 
   RDEPT  =    1.436    core radius for aug-charge                              
                                                                                
   Atomic configuration                                                         
    4 entries                                                                   
     n  l   j            E        occ.                                          
     1  0  0.50      -180.5896   2.0000                                         
     2  0  0.50        -9.4431   2.0000                                         
     2  1  0.50        -3.6068   1.0000                                         
     3  2  1.50        -4.0817   0.0000                                         
   Description                                                                  
     l       E           TYP  RCUT    TYP  RCUT                                 
     0     -9.4430752     23  1.500                                             
     0      0.8675899     23  1.500                                             
     1     -3.6067955     23  1.700                                             
     1      6.1086146     23  1.700                                             
     2     -4.0817478      7  1.700                                             
  local pseudopotential read in
  partial core-charges read in
  partial kinetic energy density read in
  atomic valenz-charges read in
  non local Contribution for L=           0  read in
    real space projection operators read in
  non local Contribution for L=           0  read in
    real space projection operators read in
  non local Contribution for L=           1  read in
    real space projection operators read in
  non local Contribution for L=           1  read in
    real space projection operators read in
    PAW grid and wavefunctions read in
 
   number of l-projection  operators is LMAX  =           4
   number of lm-projection operators is LMMAX =           8
 
 Optimization of the real space projectors (new method)

 maximal supplied QI-value         = 22.11
 optimisation between [QCUT,QGAM] = [  9.07, 18.13] = [ 23.01, 92.04] Ry 
 Optimized for a Real-space Cutoff    1.46 Angstroem

   l    n(q)    QCUT    max X(q) W(low)/X(q) W(high)/X(q)  e(spline) 
   0      8     9.065    53.033    0.38E-03    0.70E-03    0.20E-06
   0      8     9.065    34.740    0.38E-03    0.69E-03    0.20E-06
   1      7     9.065    30.949    0.34E-03    0.21E-03    0.23E-06
   1      7     9.065    19.518    0.31E-03    0.17E-03    0.22E-06
  PAW_PBE B 06Sep2000                   :
 energy of atom  1       EATOM=  -71.1703
 kinetic energy error for atom=    0.0071 (will be added to EATOM!!)
 
 
 POSCAR: XYZ: B15                                
  positions in direct lattice
  velocities in cartesian coordinates
 exchange correlation table for  LEXCH =        8
   RHO(1)=    0.500       N(1)  =     2000
   RHO(2)=  100.500       N(2)  =     4000
 


--------------------------------------------------------------------------------------------------------


 ion  position               nearest neighbor table
   1  0.500  0.500  0.500-   3 1.62   2 1.62
   2  0.635  0.635  0.635-   1 1.62   5 1.69   4 1.69   6 1.69
   3  0.365  0.365  0.365-   1 1.62   8 1.69   7 1.69   9 1.69
   4  0.806  0.301  0.806-   2 1.69  13 1.78  14 1.78   7 1.79   8 1.79  10 1.80
   5  0.806  0.806  0.301-   2 1.69  13 1.78  15 1.78   7 1.79   9 1.79  11 1.80
   6  0.301  0.806  0.806-   2 1.69  15 1.78  14 1.78   9 1.79   8 1.79  12 1.80
   7  0.699  0.194  0.194-   3 1.69  10 1.78  11 1.78   4 1.79   5 1.79  13 1.80
   8  0.194  0.194  0.699-   3 1.69  10 1.78  12 1.78   4 1.79   6 1.79  14 1.80
   9  0.194  0.699  0.194-   3 1.69  12 1.78  11 1.78   6 1.79   5 1.79  15 1.80
  10  0.006  0.331  0.006-  15 1.72   7 1.78   8 1.78   4 1.80  11 1.88  12 1.88
  11  0.006  0.006  0.331-  14 1.72   9 1.78   7 1.78   5 1.80  12 1.88  10 1.88
  12  0.331  0.006  0.006-  13 1.72   9 1.78   8 1.78   6 1.80  11 1.88  10 1.88
  13  0.669  0.994  0.994-  12 1.72   4 1.78   5 1.78   7 1.80  14 1.88  15 1.88
  14  0.994  0.994  0.669-  11 1.72   6 1.78   4 1.78   8 1.80  13 1.88  15 1.88
  15  0.994  0.669  0.994-  10 1.72   6 1.78   5 1.78   9 1.80  14 1.88  13 1.88
 
  LATTYP: Found a trigonal (rhomboedric) cell.
 ALAT       =     5.1982646629
 COS(alpha) =     0.3805786170
  
  Lattice vectors:
  
 A1 = (   2.8929204145,   1.6702283800,   3.9828763650)
 A2 = (  -2.8929204145,   1.6702283800,   3.9828763650)
 A3 = (   0.0000000000,  -3.3404567600,   3.9828763650)
 Subroutine PRICEL returns:
 Original cell was already a primitive cell.
 

Analysis of symmetry for initial positions (statically):

 Routine SETGRP: Setting up the symmetry group for a 
 trigonal (rhombohedral) supercell.


 Subroutine GETGRP returns: Found 12 space group operations
 (whereof 12 operations were pure point group operations)
 out of a pool of 12 trial point group operations.


The static configuration has the point symmetry D_3d.

Analysis of symmetry for dynamics (positions and initial velocities):

 Subroutine DYNSYM returns: Found 12 space group operations
 (whereof 12 operations were pure point group operations)
 out of a pool of 12 trial space group operations
 (whereof 12 operations were pure point group operations)
 and found also     1 'primitive' translations


The dynamic configuration has the point symmetry D_3d.
 
 
 KPOINTS: Automatic mesh                          

Automatic generation of k-mesh.
 
 Subroutine IBZKPT returns following result:
 ===========================================
 
 Found     65 irreducible k-points:
 
 Following reciprocal coordinates:
            Coordinates               Weight
  0.000000  0.000000  0.000000      1.000000
  0.125000  0.000000  0.000000      6.000000
  0.250000  0.000000  0.000000      6.000000
  0.375000  0.000000  0.000000      6.000000
  0.500000  0.000000  0.000000      3.000000
  0.125000  0.125000  0.000000      6.000000
  0.250000  0.125000  0.000000     12.000000
  0.375000  0.125000  0.000000     12.000000
  0.500000  0.125000  0.000000     12.000000
 -0.375000  0.125000  0.000000     12.000000
 -0.250000  0.125000  0.000000     12.000000
 -0.125000  0.125000  0.000000      6.000000
  0.250000  0.250000  0.000000      6.000000
  0.375000  0.250000  0.000000     12.000000
  0.500000  0.250000  0.000000     12.000000
 -0.375000  0.250000  0.000000     12.000000
 -0.250000  0.250000  0.000000      6.000000
  0.375000  0.375000  0.000000      6.000000
  0.500000  0.375000  0.000000     12.000000
 -0.375000  0.375000  0.000000      6.000000
  0.500000  0.500000  0.000000      3.000000
  0.125000  0.125000  0.125000      2.000000
  0.250000  0.125000  0.125000      6.000000
  0.375000  0.125000  0.125000      6.000000
  0.500000  0.125000  0.125000      6.000000
 -0.375000  0.125000  0.125000      6.000000
 -0.250000  0.125000  0.125000      6.000000
 -0.125000  0.125000  0.125000      6.000000
  0.250000  0.250000  0.125000      6.000000
  0.375000  0.250000  0.125000     12.000000
  0.500000  0.250000  0.125000     12.000000
 -0.375000  0.250000  0.125000     12.000000
 -0.250000  0.250000  0.125000     12.000000
 -0.125000  0.250000  0.125000     12.000000
  0.375000  0.375000  0.125000      6.000000
  0.500000  0.375000  0.125000     12.000000
 -0.375000  0.375000  0.125000     12.000000
 -0.250000  0.375000  0.125000     12.000000
 -0.125000  0.375000  0.125000     12.000000
  0.500000  0.500000  0.125000      6.000000
 -0.375000  0.500000  0.125000     12.000000
 -0.250000  0.500000  0.125000     12.000000
 -0.125000  0.500000  0.125000      6.000000
 -0.375000 -0.375000  0.125000      6.000000
 -0.250000 -0.375000  0.125000     12.000000
 -0.250000 -0.250000  0.125000      6.000000
  0.250000  0.250000  0.250000      2.000000
  0.375000  0.250000  0.250000      6.000000
  0.500000  0.250000  0.250000      6.000000
 -0.375000  0.250000  0.250000      6.000000
 -0.250000  0.250000  0.250000      6.000000
  0.375000  0.375000  0.250000      6.000000
  0.500000  0.375000  0.250000     12.000000
 -0.375000  0.375000  0.250000     12.000000
 -0.250000  0.375000  0.250000     12.000000
  0.500000  0.500000  0.250000      6.000000
 -0.375000  0.500000  0.250000     12.000000
 -0.250000  0.500000  0.250000      6.000000
 -0.375000 -0.375000  0.250000      6.000000
  0.375000  0.375000  0.375000      2.000000
  0.500000  0.375000  0.375000      6.000000
 -0.375000  0.375000  0.375000      6.000000
  0.500000  0.500000  0.375000      6.000000
 -0.375000  0.500000  0.375000      6.000000
  0.500000  0.500000  0.500000      1.000000
 
 Following cartesian coordinates:
            Coordinates               Weight
  0.000000  0.000000  0.000000      1.000000
  0.021604  0.012473  0.010461      6.000000
  0.043209  0.024947  0.020923      6.000000
  0.064813  0.037420  0.031384      6.000000
  0.086418  0.049893  0.041846      3.000000
  0.000000  0.024947  0.020923      6.000000
  0.021604  0.037420  0.031384     12.000000
  0.043209  0.049893  0.041846     12.000000
  0.064813  0.062367  0.052307     12.000000
 -0.086418 -0.024947 -0.020923     12.000000
 -0.064813 -0.012473 -0.010461     12.000000
 -0.043209  0.000000  0.000000      6.000000
  0.000000  0.049893  0.041846      6.000000
  0.021604  0.062367  0.052307     12.000000
  0.043209  0.074840  0.062769     12.000000
 -0.108022 -0.012473 -0.010461     12.000000
 -0.086418  0.000000  0.000000      6.000000
  0.000000  0.074840  0.062769      6.000000
  0.021604  0.087313  0.073230     12.000000
 -0.129627  0.000000  0.000000      6.000000
  0.000000  0.099787  0.083692      3.000000
  0.000000  0.000000  0.031384      2.000000
  0.021604  0.012473  0.041846      6.000000
  0.043209  0.024947  0.052307      6.000000
  0.064813  0.037420  0.062769      6.000000
 -0.086418 -0.049893 -0.010461      6.000000
 -0.064813 -0.037420  0.000000      6.000000
 -0.043209 -0.024947  0.010461      6.000000
  0.000000  0.024947  0.052307      6.000000
  0.021604  0.037420  0.062769     12.000000
  0.043209  0.049893  0.073230     12.000000
 -0.108022 -0.037420  0.000000     12.000000
 -0.086418 -0.024947  0.010461     12.000000
 -0.064813 -0.012473  0.020923     12.000000
  0.000000  0.049893  0.073230      6.000000
  0.021604  0.062367  0.083692     12.000000
 -0.129627 -0.024947  0.010461     12.000000
 -0.108022 -0.012473  0.020923     12.000000
 -0.086418  0.000000  0.031384     12.000000
  0.000000  0.074840  0.094153      6.000000
 -0.151231 -0.012473  0.020923     12.000000
 -0.129627  0.000000  0.031384     12.000000
 -0.108022  0.012473  0.041846      6.000000
  0.000000 -0.099787 -0.052307      6.000000
  0.021604 -0.087313 -0.041846     12.000000
  0.000000 -0.074840 -0.031384      6.000000
  0.000000  0.000000  0.062769      2.000000
  0.021604  0.012473  0.073230      6.000000
  0.043209  0.024947  0.083692      6.000000
 -0.108022 -0.062367  0.010461      6.000000
 -0.086418 -0.049893  0.020923      6.000000
  0.000000  0.024947  0.083692      6.000000
  0.021604  0.037420  0.094153     12.000000
 -0.129627 -0.049893  0.020923     12.000000
 -0.108022 -0.037420  0.031384     12.000000
  0.000000  0.049893  0.104615      6.000000
 -0.151231 -0.037420  0.031384     12.000000
 -0.129627 -0.024947  0.041846      6.000000
  0.000000 -0.124733 -0.041846      6.000000
  0.000000  0.000000  0.094153      2.000000
  0.021604  0.012473  0.104615      6.000000
 -0.129627 -0.074840  0.031384      6.000000
  0.000000  0.024947  0.115076      6.000000
 -0.151231 -0.062367  0.041846      6.000000
  0.000000  0.000000  0.125537      1.000000
 


--------------------------------------------------------------------------------------------------------




 Dimension of arrays:
   k-points           NKPTS =     65   k-points in BZ     NKDIM =     65   number of bands    NBANDS=     32
   number of dos      NEDOS =    301   number of ions     NIONS =     15
   non local maximal  LDIM  =      4   non local SUM 2l+1 LMDIM =      8
   total plane-waves  NPLWV =  13824
   max r-space proj   IRMAX =   1604   max aug-charges    IRDMAX=   2066
   dimension x,y,z NGX =    24 NGY =   24 NGZ =   24
   dimension x,y,z NGXF=    48 NGYF=   48 NGZF=   48
   support grid    NGXF=    48 NGYF=   48 NGZF=   48
   ions per type =              15
 NGX,Y,Z   is equivalent  to a cutoff of   7.68,  7.68,  7.68 a.u.
 NGXF,Y,Z  is equivalent  to a cutoff of  15.35, 15.35, 15.35 a.u.


 I would recommend the setting:
   dimension x,y,z NGX =    23 NGY =   23 NGZ =   23
 SYSTEM =  B15                                     
 POSCAR =  XYZ: B15                                

 Startparameter for this run:
   NWRITE =      2    write-flag & timer
   PREC   = normal    normal or accurate (medium, high low for compatibility)
   ISTART =      0    job   : 0-new  1-cont  2-samecut
   ICHARG =      2    charge: 1-file 2-atom 10-const
   ISPIN  =      1    spin polarized calculation?
   LNONCOLLINEAR =      F non collinear calculations
   LSORBIT =      F    spin-orbit coupling
   INIWAV =      1    electr: 0-lowe 1-rand  2-diag
   LASPH  =      F    aspherical Exc in radial PAW
   METAGGA=      F    non-selfconsistent MetaGGA calc.

 Electronic Relaxation 1
   ENCUT  =  318.6 eV  23.42 Ry    4.84 a.u.   7.57  7.57  7.57*2*pi/ulx,y,z
   ENINI  =  318.6     initial cutoff
   ENAUG  =  535.5 eV  augmentation charge cutoff
   NELM   =     40;   NELMIN=  2; NELMDL=  0     # of ELM steps 
   EDIFF  = 0.1E-05   stopping-criterion for ELM
   LREAL  =      T    real-space projection
   LCOMPAT=      F    compatible to vasp.4.4
   GGA_COMPAT  = T    GGA compatible to vasp.4.4-vasp.4.6
   LMAXPAW     = -100 max onsite density
   LMAXMIX     =    2 max onsite mixed and CHGCAR
   VOSKOWN=      0    Vosko Wilk Nusair interpolation
   ROPT   =   -0.00050
 Ionic relaxation
   EDIFFG = 0.1E-04   stopping-criterion for IOM
   NSW    =     10    number of steps for IOM
   NBLOCK =      1;   KBLOCK =     10    inner block; outer block 
   IBRION =      2    ionic relax: 0-MD 1-quasi-New 2-CG
   NFREE  =      1    steps in history (QN), initial steepest desc. (CG)
   ISIF   =      3    stress and relaxation
   IWAVPR =     11    prediction:  0-non 1-charg 2-wave 3-comb
   ISYM   =      2    0-nonsym 1-usesym 2-fastsym
   LCORR  =      T    Harris-Foulkes like correction to forces

   POTIM  = 0.2500    time-step for ionic-motion
   TEIN   =    0.0    initial temperature
   TEBEG  =    0.0;   TEEND  =   0.0 temperature during run
   SMASS  =  -3.00    Nose mass-parameter (am)
   estimated Nose-frequenzy (Omega)   =  0.10E-29 period in steps =****** mass=  -0.618E-27a.u.
   SCALEE = 1.0000    scale energy and forces
   NPACO  =    256;   APACO  = 16.0  distance and # of slots for P.C.
   PSTRESS=    0.0 pullay stress

  Mass of Ions in am
   POMASS =  10.81
  Ionic Valenz
   ZVAL   =   3.00
  Atomic Wigner-Seitz radii
   RWIGS  =  -1.00
  virtual crystal weights 
   VCA    =   1.00
   NELECT =      45.0000    total number of electrons
   NUPDOWN=      -1.0000    fix difference up-down

 DOS related values:
   EMIN   =  10.00;   EMAX   =-10.00  energy-range for DOS
   EFERMI =   0.00
   ISMEAR =     1;   SIGMA  =   0.20  broadening in eV -4-tet -1-fermi 0-gaus

 Electronic relaxation 2 (details)
   IALGO  =     38    algorithm
   LDIAG  =      T    sub-space diagonalisation (order eigenvalues)
   LSUBROT=      T    optimize rotation matrix (better conditioning)
   TURBO    =      0    0=normal 1=particle mesh
   IRESTART =      0    0=no restart 2=restart with 2 vectors
   NREBOOT  =      0    no. of reboots
   NMIN     =      0    reboot dimension
   EREF     =   0.00    reference energy to select bands
   IMIX   =      4    mixing-type and parameters
     AMIX     =   0.40;   BMIX     =  1.00
     AMIX_MAG =   1.60;   BMIX_MAG =  1.00
     AMIN     =   0.10
     WC   =   100.;   INIMIX=   1;  MIXPRE=   1

 Intra band minimization:
   WEIMIN = 0.0010     energy-eigenvalue tresh-hold
   EBREAK =  0.83E-08  absolut break condition
   DEPER  =   0.30     relativ break condition  

   TIME   =   0.40     timestep for ELM

  volume/ion in A,a.u.               =       7.70        51.95
  Fermi-wavevector in a.u.,A,eV,Ry     =   1.195801  2.259736 19.455511  1.429940
  Thomas-Fermi vector in A             =   2.331757
 
 Write flags
   LWAVE  =      F    write WAVECAR
   LCHARG =      F    write CHGCAR
   LVTOT  =      F    write LOCPOT, total local potential
   LVHAR  =      F    write LOCPOT, Hartree potential only
   LELF   =      F    write electronic localiz. function (ELF)
   LORBIT =      0    0 simple, 1 ext, 2 COOP (PROOUT)


 Dipole corrections
   LMONO  =      F    monopole corrections only (constant potential shift)
   LDIPOL =      F    correct potential (dipole corrections)
   IDIPOL =      0    1-x, 2-y, 3-z, 4-all directions 
   EPSILON=  1.0000000 bulk dielectric constant

 Exchange correlation treatment:
   GGA     =    --    GGA type
   LEXCH   =     8    internal setting for exchange type
   VOSKOWN=      0    Vosko Wilk Nusair interpolation
   LHFCALC =     F    Hartree Fock is set to
   LHFONE  =     F    Hartree Fock one center treatment
   AEXX    =    0.0000 exact exchange contribution

 Linear response parameters
   LEPSILON=     F    determine dielectric tensor
   LRPA    =     F    only Hartree local field effects (RPA)
   LNABLA  =     F    use nabla operator in PAW spheres
   LVEL    =     F    velocity operator in full k-point grid
   LINTERFAST=   F  fast interpolation
   KINTER  =     0    interpolate to denser k-point grid
   CSHIFT  =0.1000    complex shift for real part using Kramers Kronig
   OMEGAMAX=  -1.0    maximum frequency
   RTIME   =    0.100 relaxation time in fs

 Orbital magnetization related:
   ORBITALMAG=     F  switch on orbital magnetization
   LCHIMAG   =     F  perturbation theory with respect to B field
   DQ        =  0.001000  dq finite difference perturbation B field



--------------------------------------------------------------------------------------------------------


 conjugate gradient relaxation of ions
 charge density and potential will be updated during run
 non-spin polarized calculation
 Variant of blocked Davidson
 Davidson routine will perform the subspace rotation
 perform sub-space diagonalisation
    after iterative eigenvector-optimisation
 modified Broyden-mixing scheme, WC =      100.0
 initial mixing is a Kerker type mixing with AMIX =  0.4000 and BMIX =      1.0000
 Hartree-type preconditioning will be used
 using additional bands            9
 real space projection scheme for non local part
 use partial core corrections
 calculate Harris-corrections to forces 
   (improved forces if not selfconsistent)
 use gradient corrections 
 use of overlap-Matrix (Vanderbilt PP)
 Methfessel and Paxton  Order N= 1 SIGMA  =   0.20


--------------------------------------------------------------------------------------------------------


  energy-cutoff  :      318.61
  volume of cell :      115.47
      direct lattice vectors                 reciprocal lattice vectors
     2.892920415  1.670228380  3.982876365     0.172835726  0.099786753  0.083691609
    -2.892920415  1.670228380  3.982876365    -0.172835726  0.099786753  0.083691609
     0.000000000 -3.340456760  3.982876365     0.000000000 -0.199573506  0.083691609

  length of vectors
     5.198264663  5.198264663  5.198264663     0.216411344  0.216411344  0.216411344


 
 k-points in units of 2pi/SCALE and weight: Automatic mesh                          
   0.00000000  0.00000000  0.00000000       0.002
   0.02160447  0.01247334  0.01046145       0.012
   0.04320893  0.02494669  0.02092290       0.012
   0.06481340  0.03742003  0.03138435       0.012
   0.08641786  0.04989338  0.04184580       0.006
   0.00000000  0.02494669  0.02092290       0.012
   0.02160447  0.03742003  0.03138435       0.023
   0.04320893  0.04989338  0.04184580       0.023
   0.06481340  0.06236672  0.05230726       0.023
  -0.08641786 -0.02494669 -0.02092290       0.023
  -0.06481340 -0.01247334 -0.01046145       0.023
  -0.04320893  0.00000000  0.00000000       0.012
   0.00000000  0.04989338  0.04184580       0.012
   0.02160447  0.06236672  0.05230726       0.023
   0.04320893  0.07484006  0.06276871       0.023
  -0.10802233 -0.01247334 -0.01046145       0.023
  -0.08641786  0.00000000  0.00000000       0.012
   0.00000000  0.07484006  0.06276871       0.012
   0.02160447  0.08731341  0.07323016       0.023
  -0.12962679  0.00000000  0.00000000       0.012
   0.00000000  0.09978675  0.08369161       0.006
   0.00000000  0.00000000  0.03138435       0.004
   0.02160447  0.01247334  0.04184580       0.012
   0.04320893  0.02494669  0.05230726       0.012
   0.06481340  0.03742003  0.06276871       0.012
  -0.08641786 -0.04989338 -0.01046145       0.012
  -0.06481340 -0.03742003  0.00000000       0.012
  -0.04320893 -0.02494669  0.01046145       0.012
   0.00000000  0.02494669  0.05230726       0.012
   0.02160447  0.03742003  0.06276871       0.023
   0.04320893  0.04989338  0.07323016       0.023
  -0.10802233 -0.03742003  0.00000000       0.023
  -0.08641786 -0.02494669  0.01046145       0.023
  -0.06481340 -0.01247334  0.02092290       0.023
   0.00000000  0.04989338  0.07323016       0.012
   0.02160447  0.06236672  0.08369161       0.023
  -0.12962679 -0.02494669  0.01046145       0.023
  -0.10802233 -0.01247334  0.02092290       0.023
  -0.08641786  0.00000000  0.03138435       0.023
   0.00000000  0.07484006  0.09415306       0.012
  -0.15123126 -0.01247334  0.02092290       0.023
  -0.12962679  0.00000000  0.03138435       0.023
  -0.10802233  0.01247334  0.04184580       0.012
   0.00000000 -0.09978675 -0.05230726       0.012
   0.02160447 -0.08731341 -0.04184580       0.023
   0.00000000 -0.07484006 -0.03138435       0.012
   0.00000000  0.00000000  0.06276871       0.004
   0.02160447  0.01247334  0.07323016       0.012
   0.04320893  0.02494669  0.08369161       0.012
  -0.10802233 -0.06236672  0.01046145       0.012
  -0.08641786 -0.04989338  0.02092290       0.012
   0.00000000  0.02494669  0.08369161       0.012
   0.02160447  0.03742003  0.09415306       0.023
  -0.12962679 -0.04989338  0.02092290       0.023
  -0.10802233 -0.03742003  0.03138435       0.023
   0.00000000  0.04989338  0.10461451       0.012
  -0.15123126 -0.03742003  0.03138435       0.023
  -0.12962679 -0.02494669  0.04184580       0.012
   0.00000000 -0.12473344 -0.04184580       0.012
   0.00000000  0.00000000  0.09415306       0.004
   0.02160447  0.01247334  0.10461451       0.012
  -0.12962679 -0.07484006  0.03138435       0.012
   0.00000000  0.02494669  0.11507596       0.012
  -0.15123126 -0.06236672  0.04184580       0.012
   0.00000000  0.00000000  0.12553741       0.002
 
 k-points in reciprocal lattice and weights: Automatic mesh                          
   0.00000000  0.00000000  0.00000000       0.002
   0.12500000  0.00000000  0.00000000       0.012
   0.25000000  0.00000000  0.00000000       0.012
   0.37500000  0.00000000  0.00000000       0.012
   0.50000000  0.00000000  0.00000000       0.006
   0.12500000  0.12500000  0.00000000       0.012
   0.25000000  0.12500000  0.00000000       0.023
   0.37500000  0.12500000  0.00000000       0.023
   0.50000000  0.12500000  0.00000000       0.023
  -0.37500000  0.12500000  0.00000000       0.023
  -0.25000000  0.12500000  0.00000000       0.023
  -0.12500000  0.12500000  0.00000000       0.012
   0.25000000  0.25000000  0.00000000       0.012
   0.37500000  0.25000000  0.00000000       0.023
   0.50000000  0.25000000  0.00000000       0.023
  -0.37500000  0.25000000  0.00000000       0.023
  -0.25000000  0.25000000  0.00000000       0.012
   0.37500000  0.37500000  0.00000000       0.012
   0.50000000  0.37500000  0.00000000       0.023
  -0.37500000  0.37500000  0.00000000       0.012
   0.50000000  0.50000000  0.00000000       0.006
   0.12500000  0.12500000  0.12500000       0.004
   0.25000000  0.12500000  0.12500000       0.012
   0.37500000  0.12500000  0.12500000       0.012
   0.50000000  0.12500000  0.12500000       0.012
  -0.37500000  0.12500000  0.12500000       0.012
  -0.25000000  0.12500000  0.12500000       0.012
  -0.12500000  0.12500000  0.12500000       0.012
   0.25000000  0.25000000  0.12500000       0.012
   0.37500000  0.25000000  0.12500000       0.023
   0.50000000  0.25000000  0.12500000       0.023
  -0.37500000  0.25000000  0.12500000       0.023
  -0.25000000  0.25000000  0.12500000       0.023
  -0.12500000  0.25000000  0.12500000       0.023
   0.37500000  0.37500000  0.12500000       0.012
   0.50000000  0.37500000  0.12500000       0.023
  -0.37500000  0.37500000  0.12500000       0.023
  -0.25000000  0.37500000  0.12500000       0.023
  -0.12500000  0.37500000  0.12500000       0.023
   0.50000000  0.50000000  0.12500000       0.012
  -0.37500000  0.50000000  0.12500000       0.023
  -0.25000000  0.50000000  0.12500000       0.023
  -0.12500000  0.50000000  0.12500000       0.012
  -0.37500000 -0.37500000  0.12500000       0.012
  -0.25000000 -0.37500000  0.12500000       0.023
  -0.25000000 -0.25000000  0.12500000       0.012
   0.25000000  0.25000000  0.25000000       0.004
   0.37500000  0.25000000  0.25000000       0.012
   0.50000000  0.25000000  0.25000000       0.012
  -0.37500000  0.25000000  0.25000000       0.012
  -0.25000000  0.25000000  0.25000000       0.012
   0.37500000  0.37500000  0.25000000       0.012
   0.50000000  0.37500000  0.25000000       0.023
  -0.37500000  0.37500000  0.25000000       0.023
  -0.25000000  0.37500000  0.25000000       0.023
   0.50000000  0.50000000  0.25000000       0.012
  -0.37500000  0.50000000  0.25000000       0.023
  -0.25000000  0.50000000  0.25000000       0.012
  -0.37500000 -0.37500000  0.25000000       0.012
   0.37500000  0.37500000  0.37500000       0.004
   0.50000000  0.37500000  0.37500000       0.012
  -0.37500000  0.37500000  0.37500000       0.012
   0.50000000  0.50000000  0.37500000       0.012
  -0.37500000  0.50000000  0.37500000       0.012
   0.50000000  0.50000000  0.50000000       0.002
 
 position of ions in fractional coordinates (direct lattice) 
   0.50000000  0.50000000  0.50000000
   0.63522907  0.63522907  0.63522907
   0.36477093  0.36477093  0.36477093
   0.80612217  0.30142386  0.80612217
   0.80612217  0.80612217  0.30142386
   0.30142386  0.80612217  0.80612217
   0.69857614  0.19387783  0.19387783
   0.19387783  0.19387783  0.69857614
   0.19387783  0.69857614  0.19387783
   0.00557213  0.33088973  0.00557213
   0.00557213  0.00557213  0.33088973
   0.33088973  0.00557213  0.00557213
   0.66911027  0.99442787  0.99442787
   0.99442787  0.99442787  0.66911027
   0.99442787  0.66911027  0.99442787
 
 position of ions in cartesian coordinates  (Angst):
   0.00000000  0.00000000  5.97431455
   0.00000000  0.00000000  7.59011650
   0.00000000  0.00000000  4.35851260
   1.46005205 -0.84296144  7.62190384
   0.00000000  1.68592289  7.62190384
  -1.46005205 -0.84296144  7.62190384
   1.46005205  0.84296144  4.32672526
   0.00000000 -1.68592289  4.32672526
  -1.46005205  0.84296144  4.32672526
  -0.94111790  0.54335468  1.36227911
   0.00000000 -1.08670935  1.36227911
   0.94111790  0.54335468  1.36227911
  -0.94111790 -0.54335468 10.58634998
   0.00000000  1.08670935 10.58634998
   0.94111790 -0.54335468 10.58634998
 


--------------------------------------------------------------------------------------------------------


 k-point  1 :  0.00000.00000.0000  plane waves:    1499
 k-point  2 :  0.12500.00000.0000  plane waves:    1507
 k-point  3 :  0.25000.00000.0000  plane waves:    1495
 k-point  4 :  0.37500.00000.0000  plane waves:    1477
 k-point  5 :  0.50000.00000.0000  plane waves:    1484
 k-point  6 :  0.12500.12500.0000  plane waves:    1509
 k-point  7 :  0.25000.12500.0000  plane waves:    1505
 k-point  8 :  0.37500.12500.0000  plane waves:    1486
 k-point  9 :  0.50000.12500.0000  plane waves:    1490
 k-point 10 :  -.37500.12500.0000  plane waves:    1492
 k-point 11 :  -.25000.12500.0000  plane waves:    1501
 k-point 12 :  -.12500.12500.0000  plane waves:    1513
 k-point 13 :  0.25000.25000.0000  plane waves:    1501
 k-point 14 :  0.37500.25000.0000  plane waves:    1493
 k-point 15 :  0.50000.25000.0000  plane waves:    1490
 k-point 16 :  -.37500.25000.0000  plane waves:    1497
 k-point 17 :  -.25000.25000.0000  plane waves:    1492
 k-point 18 :  0.37500.37500.0000  plane waves:    1494
 k-point 19 :  0.50000.37500.0000  plane waves:    1485
 k-point 20 :  -.37500.37500.0000  plane waves:    1488
 k-point 21 :  0.50000.50000.0000  plane waves:    1488
 k-point 22 :  0.12500.12500.1250  plane waves:    1505
 k-point 23 :  0.25000.12500.1250  plane waves:    1494
 k-point 24 :  0.37500.12500.1250  plane waves:    1489
 k-point 25 :  0.50000.12500.1250  plane waves:    1480
 k-point 26 :  -.37500.12500.1250  plane waves:    1483
 k-point 27 :  -.25000.12500.1250  plane waves:    1498
 k-point 28 :  -.12500.12500.1250  plane waves:    1510
 k-point 29 :  0.25000.25000.1250  plane waves:    1502
 k-point 30 :  0.37500.25000.1250  plane waves:    1495
 k-point 31 :  0.50000.25000.1250  plane waves:    1484
 k-point 32 :  -.37500.25000.1250  plane waves:    1489
 k-point 33 :  -.25000.25000.1250  plane waves:    1493
 k-point 34 :  -.12500.25000.1250  plane waves:    1499
 k-point 35 :  0.37500.37500.1250  plane waves:    1484
 k-point 36 :  0.50000.37500.1250  plane waves:    1488
 k-point 37 :  -.37500.37500.1250  plane waves:    1488
 k-point 38 :  -.25000.37500.1250  plane waves:    1494
 k-point 39 :  -.12500.37500.1250  plane waves:    1493
 k-point 40 :  0.50000.50000.1250  plane waves:    1489
 k-point 41 :  -.37500.50000.1250  plane waves:    1484
 k-point 42 :  -.25000.50000.1250  plane waves:    1488
 k-point 43 :  -.12500.50000.1250  plane waves:    1490
 k-point 44 :  -.3750-.37500.1250  plane waves:    1493
 k-point 45 :  -.2500-.37500.1250  plane waves:    1495
 k-point 46 :  -.2500-.25000.1250  plane waves:    1492
 k-point 47 :  0.25000.25000.2500  plane waves:    1506
 k-point 48 :  0.37500.25000.2500  plane waves:    1494
 k-point 49 :  0.50000.25000.2500  plane waves:    1488
 k-point 50 :  -.37500.25000.2500  plane waves:    1479
 k-point 51 :  -.25000.25000.2500  plane waves:    1486
 k-point 52 :  0.37500.37500.2500  plane waves:    1491
 k-point 53 :  0.50000.37500.2500  plane waves:    1491
 k-point 54 :  -.37500.37500.2500  plane waves:    1485
 k-point 55 :  -.25000.37500.2500  plane waves:    1485
 k-point 56 :  0.50000.50000.2500  plane waves:    1489
 k-point 57 :  -.37500.50000.2500  plane waves:    1488
 k-point 58 :  -.25000.50000.2500  plane waves:    1490
 k-point 59 :  -.3750-.37500.2500  plane waves:    1481
 k-point 60 :  0.37500.37500.3750  plane waves:    1491
 k-point 61 :  0.50000.37500.3750  plane waves:    1488
 k-point 62 :  -.37500.37500.3750  plane waves:    1488
 k-point 63 :  0.50000.50000.3750  plane waves:    1491
 k-point 64 :  -.37500.50000.3750  plane waves:    1488
 k-point 65 :  0.50000.50000.5000  plane waves:    1512

 maximum and minimum number of plane-waves per node :      1513     1477

 maximum number of plane-waves:      1513
 maximum index in each direction: 
   IXMAX=    7   IYMAX=    7   IZMAX=    7
   IXMIN=   -8   IYMIN=   -8   IZMIN=   -8

 WARNING: aliasing errors must be expected set NGX to  32 to avoid them
 WARNING: aliasing errors must be expected set NGY to  32 to avoid them
 WARNING: aliasing errors must be expected set NGZ to  32 to avoid them
 aliasing errors are usually negligible using standard VASP settings
 and one can safely disregard these warnings

 serial   3D FFT for wavefunctions
 parallel 3D FFT for charge:
    minimum data exchange during FFTs selected (reduces bandwidth)


 total amount of memory used by VASP on root node    48599. kBytes
========================================================================

   base      :      30000. kBytes
   nonlr-proj:       1991. kBytes
   fftplans  :       1025. kBytes
   grid      :       1926. kBytes
   one-center:         46. kBytes
   wavefun   :      13611. kBytes
 
 Broyden mixing: mesh for mixing (old mesh)
   NGX = 15   NGY = 15   NGZ = 15
  (NGX  = 48   NGY  = 48   NGZ  = 48)
  gives a total of   3375 points

 initial charge density was supplied:
 charge density of overlapping atoms calculated
 number of electron      45.0000000 magnetization 
 keeping initial charge density in first step


--------------------------------------------------------------------------------------------------------


 Maximum index for non-local projection operator         1512
 Maximum index for augmentation-charges          479 (set IRDMAX)


--------------------------------------------------------------------------------------------------------


 First call to EWALD:  gamma=   0.364
 Maximum number of real-space cells 3x 3x 3
 Maximum number of reciprocal cells 3x 3x 3

    FEWALD:  cpu time    0.01: real time    0.00


----------------------------------------- Iteration    1(   1)  ---------------------------------------


    POTLOK:  cpu time    0.02: real time    0.02
    SETDIJ:  cpu time    0.01: real time    0.01
     EDDAV:  cpu time    3.35: real time    3.37
       DOS:  cpu time    0.01: real time    0.00
    --------------------------------------------
      LOOP:  cpu time    3.39: real time    3.41

 eigenvalue-minimisations  :  4160
 total energy-change (2. order) : 0.5284636E+02  (-0.1534282E+04)
 number of electron      45.0000000 magnetization 
 augmentation part       45.0000000 magnetization 

 Free energy of the ion-electron system (eV)
  ---------------------------------------------------
  alpha Z        PSCENC =       134.05394053
  Ewald energy   TEWEN  =     -1243.43514593
  -1/2 Hartree   DENC   =       -91.67898004
  -exchange  EXHF       =         0.00000000
  -V(xc)+E(xc)   XCENC  =       107.10343659
  PAW double counting   =       652.49798258     -639.66818337
  entropy T*S    EENTRO =         0.00228696
  eigenvalues    EBANDS =        66.52361038
  atomic energy  EATOM  =      1067.44741131
  ---------------------------------------------------
  free energy    TOTEN  =        52.84635901 eV

  energy without entropy =       52.84407206  energy(sigma->0) =       52.84559670


--------------------------------------------------------------------------------------------------------


 E-fermi :  11.7780     XC(G=0): -11.6189     alpha+bet :-14.4183


 k-point   1 :       0.0000    0.0000    0.0000
  band No.  band energies     occupation 
      1     -10.7332      2.00000
      2      -5.5799      2.00000
      3      -5.0062      2.00000
      4      -4.3775      2.00000
      5      -3.9466      2.00000
      6      -2.3801      2.00000
      7      -2.0335      2.00000
      8      -1.6367      2.00000
      9      -0.6551      2.00000
     10      -0.2900      2.00000
     11       0.3002      2.00000
     12       1.3765      2.00000
     13       1.7457      2.00000
     14       2.5041      2.00000
     15       2.9075      2.00000
     16       5.0901      2.00000
     17       6.2742      2.00000
     18       7.0852      2.00000
     19       7.5453      2.00000
     20       8.4284      2.00000
     21       9.2133      2.00000
     22      11.9993     -0.06589
     23      13.5442      0.00000
     24      14.0754      0.00000
     25      14.8049      0.00000
     26      16.2501      0.00000
     27      16.8518      0.00000
     28      18.0646      0.00000
     29      19.3050      0.00000
     30      20.3348      0.00000
     31      22.6213      0.00000
     32      24.1059      0.00000

 k-point   2 :       0.1250    0.0000    0.0000
  band No.  band energies     occupation 
      1     -10.7841      2.00000
      2      -5.9109      2.00000
      3      -5.4305      2.00000
      4      -4.6994      2.00000
      5      -4.0626      2.00000
      6      -2.7999      2.00000
      7      -2.1064      2.00000
      8      -1.2783      2.00000
      9      -0.5339      2.00000
     10       0.1458      2.00000
     11       0.7291      2.00000
     12       1.1478      2.00000
     13       1.7707      2.00000
     14       2.7648      2.00000
     15       3.0255      2.00000
     16       4.3253      2.00000
     17       5.8622      2.00000
     18       6.5997      2.00000
     19       8.3619      2.00000
     20       9.2452      2.00000
     21      10.8734      2.00000
     22      11.3155      2.00513
     23      13.5341      0.00000
     24      14.2418      0.00000
     25      14.6359      0.00000
     26      15.4765      0.00000
     27      16.5817      0.00000
     28      17.0698      0.00000
     29      18.7124      0.00000
     30      19.3924      0.00000
     31      19.9775      0.00000
     32      21.9735      0.00000

 k-point   3 :       0.2500    0.0000    0.0000
  band No.  band energies     occupation 
      1     -10.3028      2.00000
      2      -6.6375      2.00000
      3      -5.4105      2.00000
      4      -5.2213      2.00000
      5      -3.9758      2.00000
      6      -2.9372      2.00000
      7      -2.2148      2.00000
      8      -1.7552      2.00000
      9      -0.6900      2.00000
     10      -0.5953      2.00000
     11       0.1953      2.00000
     12       1.1738      2.00000
     13       2.2178      2.00000
     14       2.6109      2.00000
     15       3.1248      2.00000
     16       3.3133      2.00000
     17       4.7121      2.00000
     18       5.7930      2.00000
     19       6.7831      2.00000
     20       8.9478      2.00000
     21       9.5990      2.00000
     22      10.5426      2.00000
     23      12.5201      0.00000
     24      13.7231      0.00000
     25      14.4114      0.00000
     26      15.7154      0.00000
     27      16.4697      0.00000
     28      17.2100      0.00000
     29      18.4329      0.00000
     30      19.0033      0.00000
     31      19.5660      0.00000
     32      21.4835      0.00000

 k-point   4 :       0.3750    0.0000    0.0000
  band No.  band energies     occupation 
      1     -10.0939      2.00000
      2      -7.2660      2.00000
      3      -5.1874      2.00000
      4      -4.5638      2.00000
      5      -3.7347      2.00000
      6      -2.6206      2.00000
      7      -1.8941      2.00000
      8      -1.4437      2.00000
      9      -0.4309      2.00000
     10       0.4599      2.00000
     11       1.2045      2.00000
     12       1.7955      2.00000
     13       2.7118      2.00000
     14       3.5993      2.00000
     15       3.9917      2.00000
     16       4.5719      2.00000
     17       4.9927      2.00000
     18       6.2431      2.00000
     19       6.8375      2.00000
     20       8.4408      2.00000
     21       9.0944      2.00000
     22       9.9022      2.00000
     23      11.0971      2.00002
     24      12.4053     -0.00009
     25      15.1737      0.00000
     26      17.3141      0.00000
     27      17.7660      0.00000
     28      18.3095      0.00000
     29      19.4079      0.00000
     30      19.9287      0.00000
     31      22.1716      0.00000
     32      23.8823      0.00000

 k-point   5 :       0.5000    0.0000    0.0000
  band No.  band energies     occupation 
      1      -8.7480      2.00000
      2      -7.5138      2.00000
      3      -5.3408      2.00000
      4      -4.5127      2.00000
      5      -3.6081      2.00000
      6      -2.8580      2.00000
      7      -1.8897      2.00000
      8      -1.3727      2.00000
      9      -0.1506      2.00000
     10       0.3668      2.00000
     11       1.1825      2.00000
     12       1.6936      2.00000
     13       1.9073      2.00000
     14       2.8856      2.00000
     15       4.0862      2.00000
     16       4.7882      2.00000
     17       5.5335      2.00000
     18       6.3066      2.00000
     19       6.7309      2.00000
     20       8.7107      2.00000
     21       9.7916      2.00000
     22      11.1435      2.00007
     23      11.8238      0.62326
     24      13.0078      0.00000
     25      14.2610      0.00000
     26      15.6490      0.00000
     27      16.4801      0.00000
     28      17.4260      0.00000
     29      18.5086      0.00000
     30      19.5107      0.00000
     31      21.8439      0.00000
     32      22.9302      0.00000

 k-point   6 :       0.1250    0.1250    0.0000
  band No.  band energies     occupation 
      1     -10.5064      2.00000
      2      -6.0008      2.00000
      3      -5.0606      2.00000
      4      -4.9286      2.00000
      5      -3.7963      2.00000
      6      -2.7409      2.00000
      7      -1.7654      2.00000
      8      -1.6284      2.00000
      9      -0.7107      2.00000
     10      -0.4225      2.00000
     11       0.2675      2.00000
     12       1.2530      2.00000
     13       1.6304      2.00000
     14       2.7074      2.00000
     15       3.6249      2.00000
     16       4.7359      2.00000
     17       5.8296      2.00000
     18       6.2959      2.00000
     19       6.8599      2.00000
     20       7.8646      2.00000
     21      10.7100      2.00000
     22      11.9767     -0.04889
     23      12.5998      0.00000
     24      13.3041      0.00000
     25      14.2306      0.00000
     26      15.3790      0.00000
     27      16.6252      0.00000
     28      17.5007      0.00000
     29      19.2284      0.00000
     30      19.9061      0.00000
     31      21.0693      0.00000
     32      22.9739      0.00000

 k-point   7 :       0.2500    0.1250    0.0000
  band No.  band energies     occupation 
      1     -10.6547      2.00000
      2      -6.0845      2.00000
      3      -5.6569      2.00000
      4      -4.2969      2.00000
      5      -3.7684      2.00000
      6      -2.7042      2.00000
      7      -1.8046      2.00000
      8      -0.8329      2.00000
      9      -0.4037      2.00000
     10       0.3708      2.00000
     11       0.7527      2.00000
     12       0.9586      2.00000
     13       2.9472      2.00000
     14       3.6524      2.00000
     15       4.3433      2.00000
     16       5.5873      2.00000
     17       6.2073      2.00000
     18       7.0813      2.00000
     19       7.8449      2.00000
     20       9.2266      2.00000
     21       9.5709      2.00000
     22      10.9666      2.00000
     23      11.9356      0.02628
     24      13.6574      0.00000
     25      14.9862      0.00000
     26      15.6565      0.00000
     27      17.2420      0.00000
     28      18.2566      0.00000
     29      19.0286      0.00000
     30      19.5941      0.00000
     31      20.0088      0.00000
     32      22.1241      0.00000

 k-point   8 :       0.3750    0.1250    0.0000
  band No.  band energies     occupation 
      1      -9.4971      2.00000
      2      -6.5143      2.00000
      3      -6.0250      2.00000
      4      -4.6162      2.00000
      5      -3.4585      2.00000
      6      -3.0561      2.00000
      7      -1.9170      2.00000
      8      -1.4785      2.00000
      9      -0.5195      2.00000
     10      -0.0574      2.00000
     11       0.9770      2.00000
     12       1.2623      2.00000
     13       2.1255      2.00000
     14       2.9736      2.00000
     15       3.5874      2.00000
     16       4.4165      2.00000
     17       4.9874      2.00000
     18       5.6840      2.00000
     19       6.8541      2.00000
     20       9.1818      2.00000
     21       9.5488      2.00000
     22      10.6964      2.00000
     23      11.9435      0.00658
     24      13.2083      0.00000
     25      14.2991      0.00000
     26      15.7037      0.00000
     27      16.8276      0.00000
     28      18.2477      0.00000
     29      18.9811      0.00000
     30      19.8502      0.00000
     31      21.5775      0.00000
     32      22.5356      0.00000

 k-point   9 :       0.5000    0.1250    0.0000
  band No.  band energies     occupation 
      1     -10.0776      2.00000
      2      -7.5519      2.00000
      3      -5.7589      2.00000
      4      -4.7530      2.00000
      5      -3.6254      2.00000
      6      -2.9889      2.00000
      7      -2.1897      2.00000
      8      -1.4576      2.00000
      9      -0.2243      2.00000
     10       0.8762      2.00000
     11       1.0500      2.00000
     12       1.8058      2.00000
     13       2.3537      2.00000
     14       2.7808      2.00000
     15       3.7578      2.00000
     16       4.3632      2.00000
     17       5.1033      2.00000
     18       5.9926      2.00000
     19       6.6475      2.00000
     20       7.2339      2.00000
     21       8.3079      2.00000
     22       9.1908      2.00000
     23      11.4822      2.05712
     24      13.4896      0.00000
     25      14.1505      0.00000
     26      16.1420      0.00000
     27      16.5649      0.00000
     28      17.4099      0.00000
     29      18.0424      0.00000
     30      19.9808      0.00000
     31      21.9212      0.00000
     32      22.7260      0.00000

 k-point  10 :      -0.3750    0.1250    0.0000
  band No.  band energies     occupation 
      1      -9.3716      2.00000
      2      -7.3617      2.00000
      3      -5.2420      2.00000
      4      -4.5968      2.00000
      5      -3.6856      2.00000
      6      -2.3001      2.00000
      7      -1.8204      2.00000
      8      -1.3677      2.00000
      9      -0.3284      2.00000
     10       0.1324      2.00000
     11       1.2746      2.00000
     12       1.7728      2.00000
     13       2.4405      2.00000
     14       2.7588      2.00000
     15       3.0254      2.00000
     16       4.0641      2.00000
     17       5.6063      2.00000
     18       7.1202      2.00000
     19       7.7297      2.00000
     20       8.8124      2.00000
     21       9.2515      2.00000
     22      10.2866      2.00000
     23      12.1616     -0.02066
     24      12.5030      0.00000
     25      13.6550      0.00000
     26      15.1371      0.00000
     27      16.7802      0.00000
     28      17.5881      0.00000
     29      19.1385      0.00000
     30      19.7844      0.00000
     31      21.4964      0.00000
     32      23.2263      0.00000

 k-point  11 :      -0.2500    0.1250    0.0000
  band No.  band energies     occupation 
      1     -10.1163      2.00000
      2      -6.7129      2.00000
      3      -5.4055      2.00000
      4      -4.5736      2.00000
      5      -3.5786      2.00000
      6      -3.0824      2.00000
      7      -2.2440      2.00000
      8      -1.0041      2.00000
      9      -0.4494      2.00000
     10       0.1001      2.00000
     11       0.8145      2.00000
     12       2.5233      2.00000
     13       3.1885      2.00000
     14       3.5936      2.00000
     15       4.1157      2.00000
     16       4.3317      2.00000
     17       5.9702      2.00000
     18       6.5382      2.00000
     19       7.6596      2.00000
     20       8.9672      2.00000
     21       9.5612      2.00000
     22      10.7644      2.00000
     23      12.2099     -0.00924
     24      13.0733      0.00000
     25      14.1036      0.00000
     26      15.3886      0.00000
     27      15.7771      0.00000
     28      17.9912      0.00000
     29      19.2500      0.00000
     30      20.0518      0.00000
     31      21.4720      0.00000
     32      22.1874      0.00000

 k-point  12 :      -0.1250    0.1250    0.0000
  band No.  band energies     occupation 
      1     -10.7879      2.00000
      2      -6.0464      2.00000
      3      -5.4015      2.00000
      4      -4.6040      2.00000
      5      -3.6672      2.00000
      6      -2.7177      2.00000
      7      -2.4072      2.00000
      8      -1.9325      2.00000
      9      -0.9115      2.00000
     10      -0.0723      2.00000
     11       0.6693      2.00000
     12       0.9769      2.00000
     13       2.5185      2.00000
     14       3.0861      2.00000
     15       3.7422      2.00000
     16       4.6729      2.00000
     17       5.1023      2.00000
     18       5.7496      2.00000
     19       6.6879      2.00000
     20       7.7944      2.00000
     21       8.8390      2.00000
     22      10.6564      2.00000
     23      12.0902     -0.04973
     24      13.3783      0.00000
     25      13.8495      0.00000
     26      14.9031      0.00000
     27      16.0867      0.00000
     28      17.2704      0.00000
     29      17.8786      0.00000
     30      18.6245      0.00000
     31      19.4124      0.00000
     32      21.6035      0.00000

 k-point  13 :       0.2500    0.2500    0.0000
  band No.  band energies     occupation 
      1     -10.0042      2.00000
      2      -6.7639      2.00000
      3      -5.8717      2.00000
      4      -4.9320      2.00000
      5      -4.2303      2.00000
      6      -2.8617      2.00000
      7      -2.6106      2.00000
      8      -1.2279      2.00000
      9      -0.4254      2.00000
     10      -0.1914      2.00000
     11       0.7299      2.00000
     12       1.4715      2.00000
     13       1.9794      2.00000
     14       3.3497      2.00000
     15       3.5603      2.00000
     16       4.5897      2.00000
     17       5.6416      2.00000
     18       6.4062      2.00000
     19       7.3339      2.00000
     20       8.0954      2.00000
     21       9.1904      2.00000
     22      10.6028      2.00000
     23      11.2694      2.00191
     24      13.4141      0.00000
     25      14.2464      0.00000
     26      14.7064      0.00000
     27      15.8914      0.00000
     28      16.7380      0.00000
     29      17.7069      0.00000
     30      18.6940      0.00000
     31      20.4169      0.00000
     32      22.8136      0.00000

 k-point  14 :       0.3750    0.2500    0.0000
  band No.  band energies     occupation 
      1      -9.9172      2.00000
      2      -6.9525      2.00000
      3      -6.1371      2.00000
      4      -4.9943      2.00000
      5      -4.6876      2.00000
      6      -3.3640      2.00000
      7      -2.0488      2.00000
      8      -1.0403      2.00000
      9      -0.1721      2.00000
     10       0.0024      2.00000
     11       0.7964      2.00000
     12       1.6195      2.00000
     13       2.3726      2.00000
     14       2.9935      2.00000
     15       3.6529      2.00000
     16       4.0371      2.00000
     17       4.8623      2.00000
     18       5.1038      2.00000
     19       6.4496      2.00000
     20       7.7245      2.00000
     21       8.7262      2.00000
     22       9.9756      2.00000
     23      10.9779      2.00000
     24      12.9207      0.00000
     25      14.4253      0.00000
     26      15.1934      0.00000
     27      15.8158      0.00000
     28      16.3587      0.00000
     29      18.6061      0.00000
     30      19.1444      0.00000
     31      19.9683      0.00000
     32      20.9089      0.00000

 k-point  15 :       0.5000    0.2500    0.0000
  band No.  band energies     occupation 
      1      -9.9618      2.00000
      2      -7.3054      2.00000
      3      -6.2517      2.00000
      4      -5.0651      2.00000
      5      -3.9136      2.00000
      6      -2.5895      2.00000
      7      -1.7706      2.00000
      8      -0.7341      2.00000
      9      -0.0327      2.00000
     10       0.0834      2.00000
     11       1.0889      2.00000
     12       2.5299      2.00000
     13       3.2218      2.00000
     14       3.9201      2.00000
     15       4.3360      2.00000
     16       4.7817      2.00000
     17       5.1976      2.00000
     18       5.9513      2.00000
     19       6.6767      2.00000
     20       8.0152      2.00000
     21       9.3661      2.00000
     22      10.1484      2.00000
     23      12.1940     -0.01225
     24      13.5159      0.00000
     25      14.3546      0.00000
     26      14.8359      0.00000
     27      15.5938      0.00000
     28      17.2069      0.00000
     29      18.1300      0.00000
     30      19.1778      0.00000
     31      20.1926      0.00000
     32      22.3125      0.00000

 k-point  16 :      -0.3750    0.2500    0.0000
  band No.  band energies     occupation 
      1      -9.3480      2.00000
      2      -7.1874      2.00000
      3      -6.1939      2.00000
      4      -4.8501      2.00000
      5      -3.8211      2.00000
      6      -2.5343      2.00000
      7      -1.7136      2.00000
      8      -0.9481      2.00000
      9       0.0275      2.00000
     10       0.7907      2.00000
     11       1.0654      2.00000
     12       2.0175      2.00000
     13       2.9553      2.00000
     14       3.3196      2.00000
     15       4.1963      2.00000
     16       4.7648      2.00000
     17       5.2149      2.00000
     18       6.0687      2.00000
     19       6.9185      2.00000
     20       7.6190      2.00000
     21       9.0048      2.00000
     22      10.3602      2.00000
     23      11.4447      2.04006
     24      11.6917      1.66082
     25      13.1094      0.00000
     26      13.8977      0.00000
     27      16.3736      0.00000
     28      17.2850      0.00000
     29      18.8423      0.00000
     30      21.4786      0.00000
     31      22.0452      0.00000
     32      23.3516      0.00000

 k-point  17 :      -0.2500    0.2500    0.0000
  band No.  band energies     occupation 
      1      -9.2345      2.00000
      2      -6.7797      2.00000
      3      -5.5238      2.00000
      4      -4.8882      2.00000
      5      -3.1477      2.00000
      6      -2.5221      2.00000
      7      -1.8361      2.00000
      8      -0.5989      2.00000
      9      -0.1463      2.00000
     10       0.3728      2.00000
     11       1.0869      2.00000
     12       1.6105      2.00000
     13       2.1985      2.00000
     14       2.9636      2.00000
     15       4.0793      2.00000
     16       4.5162      2.00000
     17       4.9960      2.00000
     18       5.5326      2.00000
     19       6.4952      2.00000
     20       8.0611      2.00000
     21      10.4165      2.00000
     22      11.1590      2.00011
     23      11.7355      1.35117
     24      12.8346      0.00000
     25      13.3246      0.00000
     26      14.9242      0.00000
     27      15.8642      0.00000
     28      18.1034      0.00000
     29      18.7073      0.00000
     30      20.5320      0.00000
     31      21.4347      0.00000
     32      24.7099      0.00000

 k-point  18 :       0.3750    0.3750    0.0000
  band No.  band energies     occupation 
      1      -9.9577      2.00000
      2      -6.4206      2.00000
      3      -5.8029      2.00000
      4      -4.9999      2.00000
      5      -4.7067      2.00000
      6      -2.2924      2.00000
      7      -1.2185      2.00000
      8      -0.5104      2.00000
      9      -0.2454      2.00000
     10       0.4615      2.00000
     11       0.7091      2.00000
     12       1.6539      2.00000
     13       2.2271      2.00000
     14       3.2262      2.00000
     15       3.9001      2.00000
     16       4.4542      2.00000
     17       5.5642      2.00000
     18       6.0556      2.00000
     19       7.0777      2.00000
     20       8.4474      2.00000
     21      10.0724      2.00000
     22      10.8209      2.00000
     23      11.6240      1.96397
     24      12.8778      0.00000
     25      13.7197      0.00000
     26      14.5642      0.00000
     27      15.8875      0.00000
     28      17.3420      0.00000
     29      17.6185      0.00000
     30      19.1184      0.00000
     31      21.0094      0.00000
     32      23.7906      0.00000

 k-point  19 :       0.5000    0.3750    0.0000
  band No.  band energies     occupation 
      1      -8.7209      2.00000
      2      -6.7529      2.00000
      3      -6.0891      2.00000
      4      -5.4771      2.00000
      5      -4.3332      2.00000
      6      -2.4240      2.00000
      7      -1.2184      2.00000
      8      -0.8905      2.00000
      9       0.1751      2.00000
     10       1.1795      2.00000
     11       1.4456      2.00000
     12       1.8907      2.00000
     13       2.8515      2.00000
     14       2.9931      2.00000
     15       3.3910      2.00000
     16       4.0509      2.00000
     17       5.1682      2.00000
     18       6.1067      2.00000
     19       7.8562      2.00000
     20       8.4571      2.00000
     21       9.3390      2.00000
     22       9.8476      2.00000
     23      11.6350      1.93015
     24      12.8048      0.00000
     25      14.8391      0.00000
     26      15.7301      0.00000
     27      16.7557      0.00000
     28      17.2994      0.00000
     29      18.7340      0.00000
     30      19.5807      0.00000
     31      21.4382      0.00000
     32      23.9504      0.00000

 k-point  20 :      -0.3750    0.3750    0.0000
  band No.  band energies     occupation 
      1     -10.0232      2.00000
      2      -6.7337      2.00000
      3      -6.5065      2.00000
      4      -4.9851      2.00000
      5      -4.1756      2.00000
      6      -2.2490      2.00000
      7      -2.0267      2.00000
      8      -0.6025      2.00000
      9       0.3317      2.00000
     10       0.6463      2.00000
     11       1.4098      2.00000
     12       2.2988      2.00000
     13       2.9552      2.00000
     14       3.3827      2.00000
     15       4.1495      2.00000
     16       5.2880      2.00000
     17       5.7874      2.00000
     18       6.2421      2.00000
     19       7.7829      2.00000
     20       8.3596      2.00000
     21      10.0500      2.00000
     22      10.7775      2.00000
     23      11.7526      1.21294
     24      12.6159      0.00000
     25      14.5178      0.00000
     26      15.6455      0.00000
     27      16.1404      0.00000
     28      17.4064      0.00000
     29      18.4807      0.00000
     30      19.4710      0.00000
     31      22.9453      0.00000
     32      24.1253      0.00000

 k-point  21 :       0.5000    0.5000    0.0000
  band No.  band energies     occupation 
      1     -10.2343      2.00000
      2      -6.5354      2.00000
      3      -5.5803      2.00000
      4      -5.3257      2.00000
      5      -4.9164      2.00000
      6      -3.1225      2.00000
      7      -1.3344      2.00000
      8      -0.1039      2.00000
      9       0.4034      2.00000
     10       0.9281      2.00000
     11       1.8245      2.00000
     12       2.3030      2.00000
     13       2.7099      2.00000
     14       3.2967      2.00000
     15       3.9093      2.00000
     16       4.3062      2.00000
     17       4.6869      2.00000
     18       6.5324      2.00000
     19       7.0336      2.00000
     20       8.1999      2.00000
     21       8.5775      2.00000
     22      10.3255      2.00000
     23      12.1558     -0.02252
     24      13.4853      0.00000
     25      14.4313      0.00000
     26      15.9285      0.00000
     27      16.1985      0.00000
     28      17.2612      0.00000
     29      18.8361      0.00000
     30      21.1447      0.00000
     31      21.3067      0.00000
     32      24.8344      0.00000

 k-point  22 :       0.1250    0.1250    0.1250
  band No.  band energies     occupation 
      1     -10.7775      2.00000
      2      -5.7493      2.00000
      3      -5.4852      2.00000
      4      -4.3510      2.00000
      5      -4.1529      2.00000
      6      -2.4399      2.00000
      7      -2.2740      2.00000
      8      -1.6591      2.00000
      9      -1.5173      2.00000
     10      -1.1048      2.00000
     11       0.0087      2.00000
     12       1.0988      2.00000
     13       2.2001      2.00000
     14       2.7421      2.00000
     15       3.3379      2.00000
     16       4.3565      2.00000
     17       5.3283      2.00000
     18       5.6890      2.00000
     19       7.0666      2.00000
     20       7.9814      2.00000
     21       9.3639      2.00000
     22      11.1801      2.00020
     23      11.9598     -0.02580
     24      12.8790      0.00000
     25      14.5368      0.00000
     26      15.4355      0.00000
     27      16.9866      0.00000
     28      17.8022      0.00000
     29      18.9130      0.00000
     30      19.4401      0.00000
     31      21.1883      0.00000
     32      22.0509      0.00000

 k-point  23 :       0.2500    0.1250    0.1250
  band No.  band energies     occupation 
      1     -10.4166      2.00000
      2      -6.2744      2.00000
      3      -5.2444      2.00000
      4      -4.7505      2.00000
      5      -3.9995      2.00000
      6      -3.0656      2.00000
      7      -1.9889      2.00000
      8      -1.8183      2.00000
      9      -1.2441      2.00000
     10      -0.3617      2.00000
     11       0.2436      2.00000
     12       1.4981      2.00000
     13       2.9451      2.00000
     14       3.1137      2.00000
     15       4.4659      2.00000
     16       5.1746      2.00000
     17       5.6868      2.00000
     18       6.1943      2.00000
     19       7.0024      2.00000
     20       8.3314      2.00000
     21       9.7491      2.00000
     22      10.8047      2.00000
     23      11.5093      2.06722
     24      12.6376      0.00000
     25      14.0877      0.00000
     26      14.4040      0.00000
     27      16.5278      0.00000
     28      17.2385      0.00000
     29      18.4987      0.00000
     30      18.9421      0.00000
     31      20.5776      0.00000
     32      21.5990      0.00000

 k-point  24 :       0.3750    0.1250    0.1250
  band No.  band energies     occupation 
      1     -10.1733      2.00000
      2      -6.6417      2.00000
      3      -5.5505      2.00000
      4      -4.8579      2.00000
      5      -3.7172      2.00000
      6      -3.4713      2.00000
      7      -2.0964      2.00000
      8      -1.7183      2.00000
      9      -1.2113      2.00000
     10       0.3016      2.00000
     11       0.5924      2.00000
     12       1.9574      2.00000
     13       2.6363      2.00000
     14       3.3898      2.00000
     15       4.3534      2.00000
     16       4.8227      2.00000
     17       5.1619      2.00000
     18       6.0087      2.00000
     19       6.4078      2.00000
     20       6.8327      2.00000
     21       9.1223      2.00000
     22       9.9995      2.00000
     23      11.5472      2.06922
     24      13.1030      0.00000
     25      13.6879      0.00000
     26      14.5022      0.00000
     27      16.2810      0.00000
     28      17.9999      0.00000
     29      18.4652      0.00000
     30      20.7972      0.00000
     31      22.0442      0.00000
     32      22.8166      0.00000

 k-point  25 :       0.5000    0.1250    0.1250
  band No.  band energies     occupation 
      1      -9.6004      2.00000
      2      -7.0981      2.00000
      3      -5.5725      2.00000
      4      -4.9751      2.00000
      5      -4.1518      2.00000
      6      -3.0483      2.00000
      7      -1.6823      2.00000
      8      -1.5373      2.00000
      9      -0.8238      2.00000
     10       0.2424      2.00000
     11       1.5690      2.00000
     12       2.2861      2.00000
     13       2.5946      2.00000
     14       2.7856      2.00000
     15       3.9833      2.00000
     16       4.6313      2.00000
     17       5.8808      2.00000
     18       6.6994      2.00000
     19       7.0603      2.00000
     20       8.3109      2.00000
     21      10.0261      2.00000
     22      10.8182      2.00000
     23      11.3262      2.00635
     24      12.5913      0.00000
     25      12.9369      0.00000
     26      15.3181      0.00000
     27      15.8722      0.00000
     28      18.0722      0.00000
     29      19.7601      0.00000
     30      20.4820      0.00000
     31      21.8423      0.00000
     32      23.4808      0.00000

 k-point  26 :      -0.3750    0.1250    0.1250
  band No.  band energies     occupation 
      1      -9.7990      2.00000
      2      -7.5122      2.00000
      3      -4.7287      2.00000
      4      -4.3461      2.00000
      5      -3.8107      2.00000
      6      -2.5037      2.00000
      7      -1.2037      2.00000
      8      -0.8340      2.00000
      9      -0.1253      2.00000
     10       0.7509      2.00000
     11       1.3076      2.00000
     12       1.7025      2.00000
     13       2.7231      2.00000
     14       3.3779      2.00000
     15       4.4190      2.00000
     16       4.7920      2.00000
     17       5.7889      2.00000
     18       6.6045      2.00000
     19       7.1984      2.00000
     20       7.6867      2.00000
     21       8.2955      2.00000
     22      10.7862      2.00000
     23      12.5551      0.00000
     24      14.1250      0.00000
     25      15.0073      0.00000
     26      16.3177      0.00000
     27      17.4366      0.00000
     28      18.3279      0.00000
     29      19.1830      0.00000
     30      20.5144      0.00000
     31      21.8334      0.00000
     32      22.4919      0.00000

 k-point  27 :      -0.2500    0.1250    0.1250
  band No.  band energies     occupation 
      1     -10.0777      2.00000
      2      -6.6926      2.00000
      3      -5.4712      2.00000
      4      -4.7247      2.00000
      5      -3.8620      2.00000
      6      -2.0483      2.00000
      7      -1.7907      2.00000
      8      -1.1148      2.00000
      9      -0.3232      2.00000
     10       0.2253      2.00000
     11       0.5018      2.00000
     12       1.2841      2.00000
     13       1.6980      2.00000
     14       2.1403      2.00000
     15       3.1738      2.00000
     16       4.0729      2.00000
     17       4.4525      2.00000
     18       6.2800      2.00000
     19       7.2569      2.00000
     20       8.2192      2.00000
     21       9.6447      2.00000
     22      10.7134      2.00000
     23      12.5933      0.00000
     24      13.3775      0.00000
     25      13.9684      0.00000
     26      15.2668      0.00000
     27      15.9036      0.00000
     28      16.7993      0.00000
     29      18.5694      0.00000
     30      19.3552      0.00000
     31      19.8249      0.00000
     32      22.0005      0.00000

 k-point  28 :      -0.1250    0.1250    0.1250
  band No.  band energies     occupation 
      1     -10.4560      2.00000
      2      -6.5310      2.00000
      3      -5.3852      2.00000
      4      -4.6644      2.00000
      5      -3.4881      2.00000
      6      -2.6845      2.00000
      7      -1.1746      2.00000
      8      -0.9937      2.00000
      9      -0.1984      2.00000
     10       0.6777      2.00000
     11       0.9024      2.00000
     12       1.4656      2.00000
     13       2.8144      2.00000
     14       3.2348      2.00000
     15       3.5623      2.00000
     16       4.4098      2.00000
     17       5.5707      2.00000
     18       6.1446      2.00000
     19       7.2541      2.00000
     20       9.4005      2.00000
     21      10.4444      2.00000
     22      11.1591      2.00011
     23      12.8588      0.00000
     24      14.0826      0.00000
     25      14.9775      0.00000
     26      16.4392      0.00000
     27      17.5230      0.00000
     28      18.1684      0.00000
     29      19.4344      0.00000
     30      20.3088      0.00000
     31      21.4587      0.00000
     32      22.8172      0.00000

 k-point  29 :       0.2500    0.2500    0.1250
  band No.  band energies     occupation 
      1     -10.3740      2.00000
      2      -6.1104      2.00000
      3      -5.5019      2.00000
      4      -4.9810      2.00000
      5      -3.6059      2.00000
      6      -3.3128      2.00000
      7      -1.7750      2.00000
      8      -1.1716      2.00000
      9      -0.9074      2.00000
     10      -0.3649      2.00000
     11       0.4611      2.00000
     12       1.6314      2.00000
     13       3.0395      2.00000
     14       4.2390      2.00000
     15       4.6154      2.00000
     16       5.0952      2.00000
     17       6.0685      2.00000
     18       6.5310      2.00000
     19       7.3616      2.00000
     20       8.8580      2.00000
     21       9.4555      2.00000
     22      11.7603      1.14896
     23      12.4614     -0.00002
     24      13.6102      0.00000
     25      14.8664      0.00000
     26      15.2506      0.00000
     27      16.3283      0.00000
     28      16.7178      0.00000
     29      18.4986      0.00000
     30      19.0194      0.00000
     31      20.6994      0.00000
     32      22.3346      0.00000

 k-point  30 :       0.3750    0.2500    0.1250
  band No.  band energies     occupation 
      1     -10.2410      2.00000
      2      -6.5853      2.00000
      3      -5.5436      2.00000
      4      -5.1136      2.00000
      5      -3.4002      2.00000
      6      -2.9742      2.00000
      7      -1.9118      2.00000
      8      -1.6426      2.00000
      9      -0.6465      2.00000
     10       0.3998      2.00000
     11       1.0630      2.00000
     12       1.9842      2.00000
     13       3.1421      2.00000
     14       3.7667      2.00000
     15       4.5860      2.00000
     16       5.1253      2.00000
     17       5.9391      2.00000
     18       6.9857      2.00000
     19       7.9553      2.00000
     20       8.5219      2.00000
     21       9.5958      2.00000
     22      10.8656      2.00000
     23      12.3274     -0.00072
     24      12.7930      0.00000
     25      13.8448      0.00000
     26      16.1706      0.00000
     27      16.8345      0.00000
     28      18.1193      0.00000
     29      18.4468      0.00000
     30      19.7162      0.00000
     31      19.9792      0.00000
     32      23.3064      0.00000

 k-point  31 :       0.5000    0.2500    0.1250
  band No.  band energies     occupation 
      1     -10.3778      2.00000
      2      -7.1009      2.00000
      3      -6.0721      2.00000
      4      -5.3264      2.00000
      5      -4.0186      2.00000
      6      -3.0180      2.00000
      7      -2.0690      2.00000
      8      -1.6962      2.00000
      9      -0.1632      2.00000
     10       0.3161      2.00000
     11       0.9174      2.00000
     12       1.6084      2.00000
     13       2.1945      2.00000
     14       2.9247      2.00000
     15       3.7250      2.00000
     16       3.9239      2.00000
     17       4.8640      2.00000
     18       5.7341      2.00000
     19       7.2892      2.00000
     20       7.7933      2.00000
     21       8.5826      2.00000
     22       9.7576      2.00000
     23      11.4689      2.05118
     24      12.5178      0.00000
     25      12.8441      0.00000
     26      14.8232      0.00000
     27      15.3057      0.00000
     28      16.8389      0.00000
     29      17.7340      0.00000
     30      20.0201      0.00000
     31      20.9923      0.00000
     32      22.2351      0.00000

 k-point  32 :      -0.3750    0.2500    0.1250
  band No.  band energies     occupation 
      1      -9.4785      2.00000
      2      -6.8164      2.00000
      3      -5.7101      2.00000
      4      -5.2753      2.00000
      5      -3.6622      2.00000
      6      -2.7518      2.00000
      7      -1.6388      2.00000
      8      -0.6006      2.00000
      9      -0.1595      2.00000
     10       0.5165      2.00000
     11       1.0841      2.00000
     12       1.9506      2.00000
     13       2.3924      2.00000
     14       3.0877      2.00000
     15       4.7789      2.00000
     16       5.2783      2.00000
     17       5.6858      2.00000
     18       6.9475      2.00000
     19       7.9636      2.00000
     20       8.7541      2.00000
     21       9.7967      2.00000
     22      11.0999      2.00002
     23      12.0898     -0.04992
     24      13.5566      0.00000
     25      14.1532      0.00000
     26      15.4721      0.00000
     27      16.8612      0.00000
     28      17.7054      0.00000
     29      18.5561      0.00000
     30      19.8736      0.00000
     31      21.0254      0.00000
     32      23.2275      0.00000

 k-point  33 :      -0.2500    0.2500    0.1250
  band No.  band energies     occupation 
      1      -9.6857      2.00000
      2      -6.5464      2.00000
      3      -6.0644      2.00000
      4      -4.6536      2.00000
      5      -3.5121      2.00000
      6      -1.9088      2.00000
      7      -1.2431      2.00000
      8      -0.7989      2.00000
      9       0.2728      2.00000
     10       0.4521      2.00000
     11       1.0773      2.00000
     12       1.7056      2.00000
     13       2.0549      2.00000
     14       2.9851      2.00000
     15       3.5184      2.00000
     16       4.9173      2.00000
     17       6.0187      2.00000
     18       7.1420      2.00000
     19       8.1097      2.00000
     20       9.6274      2.00000
     21      10.0057      2.00000
     22      11.4434      2.03948
     23      12.3774     -0.00019
     24      13.4697      0.00000
     25      14.8080      0.00000
     26      16.2444      0.00000
     27      16.5563      0.00000
     28      17.7255      0.00000
     29      18.5081      0.00000
     30      18.7856      0.00000
     31      20.8199      0.00000
     32      23.2184      0.00000

 k-point  34 :      -0.1250    0.2500    0.1250
  band No.  band energies     occupation 
      1      -9.8662      2.00000
      2      -6.0566      2.00000
      3      -5.4306      2.00000
      4      -4.5990      2.00000
      5      -3.9006      2.00000
      6      -2.9626      2.00000
      7      -1.5402      2.00000
      8      -0.4511      2.00000
      9       0.1177      2.00000
     10       0.5450      2.00000
     11       1.0973      2.00000
     12       1.8186      2.00000
     13       2.7429      2.00000
     14       3.1047      2.00000
     15       3.7486      2.00000
     16       4.0853      2.00000
     17       5.1482      2.00000
     18       6.2957      2.00000
     19       7.4354      2.00000
     20       8.4872      2.00000
     21      10.7746      2.00000
     22      12.0746     -0.05681
     23      12.5799      0.00000
     24      12.7799      0.00000
     25      13.9307      0.00000
     26      15.4579      0.00000
     27      16.4339      0.00000
     28      17.7334      0.00000
     29      19.0146      0.00000
     30      19.9295      0.00000
     31      20.4636      0.00000
     32      23.4565      0.00000

 k-point  35 :       0.3750    0.3750    0.1250
  band No.  band energies     occupation 
      1     -10.1545      2.00000
      2      -6.5396      2.00000
      3      -5.6868      2.00000
      4      -5.4137      2.00000
      5      -4.3428      2.00000
      6      -3.0104      2.00000
      7      -2.3019      2.00000
      8      -1.0857      2.00000
      9      -0.5075      2.00000
     10       0.0532      2.00000
     11       1.2233      2.00000
     12       2.3858      2.00000
     13       2.7862      2.00000
     14       3.6255      2.00000
     15       3.8835      2.00000
     16       4.3311      2.00000
     17       5.3506      2.00000
     18       6.6635      2.00000
     19       7.2986      2.00000
     20       7.7393      2.00000
     21       8.9763      2.00000
     22      10.5423      2.00000
     23      11.3732      2.01478
     24      12.0135     -0.07018
     25      13.4476      0.00000
     26      14.3764      0.00000
     27      16.3315      0.00000
     28      17.3644      0.00000
     29      17.9358      0.00000
     30      18.1714      0.00000
     31      20.0267      0.00000
     32      21.8991      0.00000

 k-point  36 :       0.5000    0.3750    0.1250
  band No.  band energies     occupation 
      1      -8.3222      2.00000
      2      -6.3616      2.00000
      3      -5.7992      2.00000
      4      -5.4463      2.00000
      5      -4.5312      2.00000
      6      -2.6611      2.00000
      7      -2.3263      2.00000
      8      -0.6303      2.00000
      9       0.4052      2.00000
     10       1.3006      2.00000
     11       1.5772      2.00000
     12       2.5459      2.00000
     13       3.1683      2.00000
     14       3.7340      2.00000
     15       4.5287      2.00000
     16       5.1451      2.00000
     17       5.8585      2.00000
     18       6.9809      2.00000
     19       7.6514      2.00000
     20       8.6883      2.00000
     21       9.2674      2.00000
     22      10.4023      2.00000
     23      11.1249      2.00004
     24      12.4551     -0.00002
     25      14.5937      0.00000
     26      14.9584      0.00000
     27      15.6538      0.00000
     28      16.8794      0.00000
     29      18.8207      0.00000
     30      20.2123      0.00000
     31      22.0649      0.00000
     32      23.6418      0.00000

 k-point  37 :      -0.3750    0.3750    0.1250
  band No.  band energies     occupation 
      1      -9.6615      2.00000
      2      -7.3159      2.00000
      3      -6.2194      2.00000
      4      -5.2430      2.00000
      5      -4.2306      2.00000
      6      -2.4552      2.00000
      7      -1.7856      2.00000
      8      -0.4869      2.00000
      9       0.3798      2.00000
     10       0.5448      2.00000
     11       1.3387      2.00000
     12       1.8285      2.00000
     13       2.7143      2.00000
     14       3.2649      2.00000
     15       3.7553      2.00000
     16       4.8384      2.00000
     17       5.2284      2.00000
     18       6.1777      2.00000
     19       7.4471      2.00000
     20       9.1081      2.00000
     21       9.5256      2.00000
     22       9.9995      2.00000
     23      10.7888      2.00000
     24      12.6329      0.00000
     25      13.3430      0.00000
     26      14.5958      0.00000
[...]
     12       0.5208      2.00000
     13       1.0786      2.00000
     14       1.4952      2.00000
     15       1.8012      2.00000
     16       1.8562      2.00000
     17       2.1040      2.00000
     18       2.5273      2.00000
     19       2.7376      2.00000
     20       2.9982      2.00000
     21       3.2162      2.00000
     22       3.5549      2.00000
     23       4.0892      2.05051
     24       4.9901     -0.00001
     25       7.9711      0.00000
     26       8.4363      0.00000
     27       8.7627      0.00000
     28       9.0697      0.00000
     29       9.5299      0.00000
     30      10.3579      0.00000
     31      11.0389      0.00000
     32      12.4928      0.00000

 k-point  58 :      -0.2500    0.5000    0.2500
  band No.  band energies     occupation 
      1      -9.6528      2.00000
      2      -7.0077      2.00000
      3      -6.8726      2.00000
      4      -6.4509      2.00000
      5      -4.8939      2.00000
      6      -3.6529      2.00000
      7      -2.4710      2.00000
      8      -2.1066      2.00000
      9      -1.4616      2.00000
     10      -1.0056      2.00000
     11      -0.6867      2.00000
     12       0.2164      2.00000
     13       0.8786      2.00000
     14       1.1956      2.00000
     15       1.5831      2.00000
     16       1.7145      2.00000
     17       1.9588      2.00000
     18       2.5827      2.00000
     19       2.7484      2.00000
     20       2.9201      2.00000
     21       3.0615      2.00000
     22       3.6319      2.00003
     23       3.8989      2.01856
     24       5.0669      0.00000
     25       8.1933      0.00000
     26       8.2708      0.00000
     27       8.7700      0.00000
     28       8.9172      0.00000
     29       9.9337      0.00000
     30      10.4868      0.00000
     31      11.5968      0.00000
     32      12.7449      0.00000

 k-point  59 :      -0.3750   -0.3750    0.2500
  band No.  band energies     occupation 
      1      -9.6491      2.00000
      2      -7.0872      2.00000
      3      -6.6278      2.00000
      4      -6.2569      2.00000
      5      -5.5831      2.00000
      6      -3.3032      2.00000
      7      -2.5169      2.00000
      8      -2.1904      2.00000
      9      -1.2707      2.00000
     10      -1.2629      2.00000
     11      -0.8608      2.00000
     12       0.1236      2.00000
     13       0.8893      2.00000
     14       1.6350      2.00000
     15       1.7596      2.00000
     16       1.8049      2.00000
     17       1.9923      2.00000
     18       2.2751      2.00000
     19       2.8250      2.00000
     20       3.1044      2.00000
     21       3.3272      2.00000
     22       3.4726      2.00000
     23       3.9574      2.04064
     24       5.1147      0.00000
     25       8.1326      0.00000
     26       8.3555      0.00000
     27       8.7642      0.00000
     28       9.3691      0.00000
     29       9.3693      0.00000
     30      10.2450      0.00000
     31      11.1608      0.00000
     32      12.2705      0.00000

 k-point  60 :       0.3750    0.3750    0.3750
  band No.  band energies     occupation 
      1      -9.8235      2.00000
      2      -6.9610      2.00000
      3      -5.9359      2.00000
      4      -5.9359      2.00000
      5      -4.9913      2.00000
      6      -4.4382      2.00000
      7      -3.3450      2.00000
      8      -3.3450      2.00000
      9      -1.4589      2.00000
     10      -1.4589      2.00000
     11      -1.3879      2.00000
     12       0.9522      2.00000
     13       1.7081      2.00000
     14       1.7081      2.00000
     15       2.1706      2.00000
     16       2.1905      2.00000
     17       2.1905      2.00000
     18       3.0045      2.00000
     19       3.0106      2.00000
     20       3.0106      2.00000
     21       3.7499      2.00092
     22       3.9304      2.02923
     23       3.9304      2.02923
     24       4.9421     -0.00004
     25       8.3977      0.00000
     26       8.3977      0.00000
     27       8.5320      0.00000
     28       9.4008      0.00000
     29       9.4008      0.00000
     30       9.5209      0.00000
     31      11.1630      0.00000
     32      12.4021      0.00000

 k-point  61 :       0.5000    0.3750    0.3750
  band No.  band energies     occupation 
      1      -9.7378      2.00000
      2      -7.0502      2.00000
      3      -6.2808      2.00000
      4      -5.9461      2.00000
      5      -4.8949      2.00000
      6      -4.5697      2.00000
      7      -3.3143      2.00000
      8      -2.8853      2.00000
      9      -1.4907      2.00000
     10      -1.4712      2.00000
     11      -0.9512      2.00000
     12       0.9349      2.00000
     13       1.1997      2.00000
     14       1.7028      2.00000
     15       2.0877      2.00000
     16       2.4131      2.00000
     17       2.4407      2.00000
     18       2.7889      2.00000
     19       2.9028      2.00000
     20       3.1690      2.00000
     21       3.6938      2.00021
     22       3.8076      2.00344
     23       4.0562      2.06976
     24       4.7832     -0.00266
     25       8.0856      0.00000
     26       8.3863      0.00000
     27       8.4226      0.00000
     28       9.2216      0.00000
     29       9.4315      0.00000
     30       9.6929      0.00000
     31      11.0336      0.00000
     32      12.4570      0.00000

 k-point  62 :      -0.3750    0.3750    0.3750
  band No.  band energies     occupation 
      1      -9.6634      2.00000
      2      -7.0094      2.00000
      3      -6.6856      2.00000
      4      -6.0936      2.00000
      5      -5.2815      2.00000
      6      -3.9804      2.00000
      7      -2.8789      2.00000
      8      -2.1039      2.00000
      9      -1.5335      2.00000
     10      -1.4160      2.00000
     11      -1.3117      2.00000
     12       0.7010      2.00000
     13       1.5695      2.00000
     14       1.6009      2.00000
     15       1.9413      2.00000
     16       2.0288      2.00000
     17       2.3289      2.00000
     18       2.7067      2.00000
     19       2.7631      2.00000
     20       3.0598      2.00000
     21       3.2188      2.00000
     22       3.6923      2.00020
     23       4.3186      0.75619
     24       4.6023     -0.04943
     25       8.2092      0.00000
     26       8.3476      0.00000
     27       8.4010      0.00000
     28       9.2421      0.00000
     29       9.3329      0.00000
     30      10.0251      0.00000
     31      11.0028      0.00000
     32      12.4106      0.00000

 k-point  63 :       0.5000    0.5000    0.3750
  band No.  band energies     occupation 
      1      -9.6959      2.00000
      2      -7.1039      2.00000
      3      -6.2257      2.00000
      4      -6.0536      2.00000
      5      -5.0315      2.00000
      6      -4.4930      2.00000
      7      -3.2470      2.00000
      8      -3.0208      2.00000
      9      -1.5769      2.00000
     10      -0.9707      2.00000
     11      -0.9402      2.00000
     12       0.8123      2.00000
     13       1.1801      2.00000
     14       1.4199      2.00000
     15       2.2546      2.00000
     16       2.4052      2.00000
     17       2.5798      2.00000
     18       2.8886      2.00000
     19       2.9903      2.00000
     20       3.1300      2.00000
     21       3.4788      2.00000
     22       3.8735      2.01225
     23       4.1695      1.83997
     24       4.7991     -0.00186
     25       8.0734      0.00000
     26       8.1635      0.00000
     27       8.3832      0.00000
     28       9.2334      0.00000
     29       9.3486      0.00000
     30       9.7048      0.00000
     31      10.9288      0.00000
     32      12.3093      0.00000

 k-point  64 :      -0.3750    0.5000    0.3750
  band No.  band energies     occupation 
      1      -9.6570      2.00000
      2      -7.0022      2.00000
      3      -6.5602      2.00000
      4      -6.2472      2.00000
      5      -5.1069      2.00000
      6      -4.2402      2.00000
      7      -2.8810      2.00000
      8      -2.4060      2.00000
      9      -1.5989      2.00000
     10      -1.4515      2.00000
     11      -0.8811      2.00000
     12       1.0285      2.00000
     13       1.0307      2.00000
     14       1.6014      2.00000
     15       2.1378      2.00000
     16       2.1999      2.00000
     17       2.4944      2.00000
     18       2.5721      2.00000
     19       2.9275      2.00000
     20       2.9906      2.00000
     21       3.2139      2.00000
     22       3.7289      2.00054
     23       4.4984     -0.05832
     24       4.5444     -0.07020
     25       8.0772      0.00000
     26       8.3094      0.00000
     27       8.4239      0.00000
     28       9.1500      0.00000
     29       9.4149      0.00000
     30       9.9905      0.00000
     31      10.8660      0.00000
     32      12.4047      0.00000

 k-point  65 :       0.5000    0.5000    0.5000
  band No.  band energies     occupation 
      1      -9.6982      2.00000
      2      -7.1903      2.00000
      3      -5.9664      2.00000
      4      -5.9664      2.00000
      5      -4.8897      2.00000
      6      -4.7210      2.00000
      7      -3.4753      2.00000
      8      -3.4753      2.00000
      9      -1.0225      2.00000
     10      -1.0225      2.00000
     11      -0.9692      2.00000
     12       0.6226      2.00000
     13       1.1667      2.00000
     14       1.1667      2.00000
     15       2.4665      2.00000
     16       2.4665      2.00000
     17       2.6577      2.00000
     18       3.1039      2.00000
     19       3.3201      2.00000
     20       3.3201      2.00000
     21       3.7473      2.00086
     22       3.7473      2.00086
     23       3.8305      2.00552
     24       4.9385     -0.00004
     25       8.0742      0.00000
     26       8.0742      0.00000
     27       8.2001      0.00000
     28       9.3146      0.00000
     29       9.3146      0.00000
     30       9.4705      0.00000
     31      10.9329      0.00000
     32      12.5196      0.00000


--------------------------------------------------------------------------------------------------------


 soft charge-density along one line, spin component           1
         0         1         2         3         4         5         6         7         8         9
 total charge-density along one line
 
 pseudopotential strength for first ion, spin component:           1
  6.360   9.679   0.000   0.000   0.000   0.000   0.000   0.000
  9.679  14.726   0.000   0.000   0.000   0.000   0.000   0.000
  0.000   0.000  -2.155   0.000   0.000  -3.654   0.000   0.000
  0.000   0.000   0.000  -2.158   0.000   0.000  -3.664   0.000
  0.000   0.000   0.000   0.000  -2.155   0.000   0.000  -3.654
  0.000   0.000  -3.654   0.000   0.000  -5.998   0.000   0.000
  0.000   0.000   0.000  -3.664   0.000   0.000  -6.020   0.000
  0.000   0.000   0.000   0.000  -3.654   0.000   0.000  -5.998
 total augmentation occupancy for first ion, spin component:           1
  2.851  -0.498   0.000   0.000   0.000   0.000   0.000   0.000
 -0.498   0.146   0.000   0.000   0.000   0.000   0.000   0.000
  0.000   0.000   1.278   0.000   0.000  -0.289   0.000   0.000
  0.000   0.000   0.000   3.017   0.000   0.000  -0.803   0.000
  0.000   0.000   0.000   0.000   1.278   0.000   0.000  -0.289
  0.000   0.000  -0.289   0.000   0.000   0.068   0.000   0.000
  0.000   0.000   0.000  -0.803   0.000   0.000   0.221   0.000
  0.000   0.000   0.000   0.000  -0.289   0.000   0.000   0.068


------------------------ aborting loop because EDIFF is reached ----------------------------------------


    CHARGE:  cpu time    0.12: real time    0.12
    FORLOC:  cpu time    0.00: real time    0.00
    FORNL :  cpu time    1.27: real time    1.27
    STRESS:  cpu time    3.76: real time    3.78
    FORCOR:  cpu time    0.03: real time    0.02
    FORHAR:  cpu time    0.00: real time    0.01
    MIXING:  cpu time    0.00: real time    0.00

  FORCE on cell =-STRESS in cart. coord.  units (eV):
  Direction    XX          YY          ZZ          XY          YZ          ZX
  --------------------------------------------------------------------------------------
  Alpha Z   133.57062   133.57062   133.57062
  Ewald    -414.95146  -414.95146  -411.65979     0.00000     0.00000     0.00000
  Hartree    50.68660    50.68660    33.16060     0.00000     0.00000     0.00000
  E(xc)    -145.31098  -145.31098  -145.23998     0.00000     0.00000     0.00000
  Local    -110.21806  -110.21806   -85.11718     0.00000     0.00000     0.00000
  n-local   -10.41333    -9.46333    -8.18855    -0.04294    -1.01605    -0.03424
  augment     1.76205     1.76205     1.83954     0.00000     0.00000     0.00000
  Kinetic   498.17141   490.67976   481.57285    -0.68329     7.46610     0.60494
  Fock        0.00000     0.00000     0.00000     0.00000     0.00000     0.00000
  -------------------------------------------------------------------------------------
  Total       0.02602     0.02602    -0.06188     0.00000     0.00000     0.00000
  in kB       0.35978     0.35978    -0.85555     0.00000     0.00000     0.00000
  external pressure =       -0.05 kB  Pullay stress =        0.00 kB


 VOLUME and BASIS-vectors are now :
 -----------------------------------------------------------------------------
  energy-cutoff  :      318.61
  volume of cell :      115.89
      direct lattice vectors                 reciprocal lattice vectors
     2.895887559  1.671941462  3.989101205     0.172658637  0.099684511  0.083561012
    -2.895887559  1.671941462  3.989101205    -0.172658637  0.099684511  0.083561012
     0.000000000 -3.343882923  3.989101205     0.000000000 -0.199369022  0.083561012

  length of vectors
     5.205235963  5.205235963  5.205235962     0.216172268  0.216172268  0.216172268


 FORCES acting on ions
    electron-ion (+dipol)            ewald-force                    non-local-force                 convergence-correction
 -----------------------------------------------------------------------------------------------
   -.314E-12 -.229E-13 -.155E-12   -.566E-14 -.241E-13 -.816E-14   -.412E-27 0.000E+00 -.103E-24   0.844E-13 0.619E-13 0.785E-13
   0.160E-12 0.153E-07 -.241E+02   0.461E-14 -.506E-08 0.245E+02   0.139E-16 -.315E-11 -.370E+00   0.106E-12 0.252E-13 0.775E-03
   -.194E-12 -.153E-07 0.241E+02   -.233E-14 0.506E-08 -.245E+02   -.677E-20 0.315E-11 0.370E+00   -.293E-13 -.121E-13 -.775E-03
   0.371E+02 -.214E+02 0.119E+02   -.394E+02 0.228E+02 -.118E+02   0.234E+01 -.135E+01 -.489E-01   -.124E-03 0.713E-04 0.176E-03
   -.899E-13 0.429E+02 0.119E+02   -.533E-14 -.456E+02 -.118E+02   0.140E-16 0.270E+01 -.489E-01   0.107E-13 -.143E-03 0.176E-03
   -.371E+02 -.214E+02 0.119E+02   0.394E+02 0.228E+02 -.118E+02   -.234E+01 -.135E+01 -.489E-01   0.124E-03 0.713E-04 0.176E-03
   0.371E+02 0.214E+02 -.119E+02   -.394E+02 -.228E+02 0.118E+02   0.234E+01 0.135E+01 0.489E-01   -.124E-03 -.713E-04 -.176E-03
   -.133E-12 -.429E+02 -.119E+02   -.205E-14 0.456E+02 0.118E+02   -.131E-18 -.270E+01 0.489E-01   -.461E-13 0.143E-03 -.176E-03
   -.371E+02 0.214E+02 -.119E+02   0.394E+02 -.228E+02 0.118E+02   -.234E+01 0.135E+01 0.489E-01   0.124E-03 -.713E-04 -.176E-03
   0.180E+02 -.104E+02 -.398E+02   -.205E+02 0.118E+02 0.434E+02   0.249E+01 -.144E+01 -.362E+01   -.497E-03 0.287E-03 0.397E-03
   0.114E-13 0.208E+02 -.398E+02   -.161E-14 -.237E+02 0.434E+02   -.102E-16 0.288E+01 -.362E+01   0.261E-13 -.574E-03 0.397E-03
   -.180E+02 -.104E+02 -.398E+02   0.205E+02 0.118E+02 0.434E+02   -.249E+01 -.144E+01 -.362E+01   0.497E-03 0.287E-03 0.397E-03
   0.180E+02 0.104E+02 0.398E+02   -.205E+02 -.118E+02 -.434E+02   0.249E+01 0.144E+01 0.362E+01   -.497E-03 -.287E-03 -.397E-03
   0.244E-12 -.208E+02 0.398E+02   0.389E-14 0.237E+02 -.434E+02   0.324E-17 -.288E+01 0.362E+01   -.162E-12 0.574E-03 -.397E-03
   -.180E+02 0.104E+02 0.398E+02   0.205E+02 -.118E+02 -.434E+02   -.249E+01 0.144E+01 0.362E+01   0.497E-03 -.287E-03 -.397E-03
 -----------------------------------------------------------------------------------------------
   -.686E-12 -.183E-11 -.554E-11   0.107E-13 -.213E-13 0.000E+00   -.444E-15 0.111E-14 -.178E-14   -.312E-13 -.666E-13 -.103E-12
 
 
 POSITION                                       TOTAL-FORCE (eV/Angst)
 -----------------------------------------------------------------------------------
      0.00000      0.00000      5.98365         0.000000      0.000000      0.000000
      0.00000      0.00000      7.59839         0.000000      0.000000     -0.000661
      0.00000      0.00000      4.36891         0.000000      0.000000      0.000661
      1.46331     -0.84484      7.63608         0.000692     -0.000400      0.000203
      0.00000      1.68968      7.63608         0.000000      0.000799      0.000203
     -1.46331     -0.84484      7.63608        -0.000692     -0.000400      0.000203
      1.46331      0.84484      4.33122         0.000692      0.000400     -0.000203
      0.00000     -1.68968      4.33122         0.000000     -0.000799     -0.000203
     -1.46331      0.84484      4.33122        -0.000692      0.000400     -0.000203
     -0.93980      0.54260      1.36779         0.002521     -0.001455     -0.002813
      0.00000     -1.08519      1.36779         0.000000      0.002911     -0.002813
      0.93980      0.54260      1.36779        -0.002521     -0.001455     -0.002813
     -0.93980     -0.54260     10.59951         0.002521      0.001455      0.002813
      0.00000      1.08519     10.59951         0.000000     -0.002911      0.002813
      0.93980     -0.54260     10.59951        -0.002521      0.001455      0.002813
 -----------------------------------------------------------------------------------
    total drift:                                0.000000      0.000000      0.000000


--------------------------------------------------------------------------------------------------------



  FREE ENERGIE OF THE ION-ELECTRON SYSTEM (eV)
  ---------------------------------------------------
  free  energy   TOTEN  =       -97.211256 eV

  energy  without entropy=      -97.211171  energy(sigma->0) =      -97.211228
 
 d Force = 0.5020957E-05[-0.201E-05, 0.120E-04]  d Energy =-0.6719629E-06 0.569E-05
 d Force = 0.6870888E-01[ 0.687E-01, 0.687E-01]  d Ewald  = 0.9911804E-01-0.304E-01


--------------------------------------------------------------------------------------------------------


    POTLOK:  cpu time    0.04: real time    0.03


--------------------------------------------------------------------------------------------------------




--------------------------------------------------------------------------------------------------------


  
 reached required accuracy - stopping structural energy minimisation
     LOOP+:  cpu time   17.04: real time   17.13
    4ORBIT:  cpu time    0.00: real time    0.00

 total amount of memory used by VASP on root node    48599. kBytes
========================================================================

   base      :      30000. kBytes
   nonlr-proj:       1991. kBytes
   fftplans  :       1025. kBytes
   grid      :       1926. kBytes
   one-center:         46. kBytes
   wavefun   :      13611. kBytes
 
  
  
 General timing and accounting informations for this job:
 ========================================================
  
                  Total CPU time used (sec):      189.590
                            User time (sec):      189.110
                          System time (sec):        0.480
                         Elapsed time (sec):      190.843
  
                   Maximum memory used (kb):       67732.
                   Average memory used (kb):           0.
  
                          Minor page faults:        17403
                          Major page faults:            0
                 Voluntary context switches:          838
